ITEM: TIMESTEP
1000
ITEM: NUMBER OF ATOMS
3999
ITEM: BOX BOUNDS pp pp pp
0.0000000000000000e+00 3.5503000000000000e+01
0.0000000000000000e+00 3.5503000000000000e+01
0.0000000000000000e+00 3.5503000000000000e+01
ITEM: ATOMS id type x y z 
7 3 3.5205 1.73712 1.75698 
44 1 1.77437 3.56159 1.79368 
45 1 3.52961 3.5806 0.0121012 
402 1 1.75505 1.791 3.57923 
445 3 3.52585 3.5917 3.55484 
6 3 5.27482 1.78066 0.0427688 
9 3 7.04 0.0675248 0.0132858 
11 2 7.09028 1.79054 1.7806 
48 1 5.2967 3.5712 1.80875 
49 1 7.10193 3.56366 0.0101339 
406 1 5.29768 1.787 3.56077 
409 1 7.08162 0.00984919 3.55311 
449 3 7.12674 3.57594 3.54733 
10 3 8.91963 1.792 0.00608052 
12 1 8.86166 0.000667343 1.77902 
13 3 10.6914 0.0206852 0.0227387 
15 2 10.6312 1.7684 1.77483 
52 1 8.88876 3.58544 1.79187 
410 3 8.89701 1.77026 3.5544 
413 2 10.6755 0.000725301 3.57313 
453 1 10.6675 3.57638 3.54489 
14 1 12.4294 1.80807 0.0073216 
16 1 12.4466 0.0171467 1.7876 
19 2 14.2373 1.78402 1.80111 
56 1 12.442 3.57714 1.7649 
57 2 14.223 3.52726 0.00104891 
414 1 12.4493 1.77866 3.5561 
417 3 14.2414 0.00137865 3.5591 
457 3 14.258 3.58828 3.47848 
23 2 17.7603 1.79975 1.77813 
24 1 19.5665 0.0291553 1.74866 
60 2 15.9941 3.57949 1.80902 
61 3 17.7191 3.50121 0.0223742 
64 3 19.4971 3.56233 1.74119 
418 3 16.0403 1.75597 3.48097 
422 1 19.5608 1.79929 3.5281 
461 2 17.7434 3.57832 3.56741 
27 1 21.3153 1.80682 1.72222 
28 1 23.083 0.0364399 1.73638 
68 1 23.0934 3.5943 1.74626 
425 3 21.3402 0.0238847 3.59134 
426 1 23.1047 1.81736 3.50458 
465 1 21.3209 3.58245 3.51738 
30 3 26.6478 1.75044 0.0098294 
31 2 24.9102 1.81584 1.72665 
32 1 26.6242 0.00227748 1.73827 
72 2 26.6558 3.579 1.73531 
429 1 24.8583 0.0412653 3.50563 
430 1 26.6414 1.81977 3.52535 
469 2 24.8776 3.56526 3.57833 
35 1 28.4057 1.76699 1.75071 
76 1 30.1827 3.56041 1.76597 
434 3 30.1629 1.74471 3.53011 
473 2 28.45 3.56422 3.5462 
1 1 35.4909 0.00802003 0.0086357 
3 2 35.4718 1.77415 1.77862 
38 3 33.7256 1.77118 0.0505596 
39 2 31.9646 1.81262 1.80835 
40 3 33.7269 0.0449096 1.84098 
80 1 33.7349 3.56568 1.78698 
438 3 33.7387 1.80539 3.60686 
441 1 35.5009 3.56936 3.591 
477 3 31.9242 3.56357 3.58196 
42 2 1.77458 5.35917 0.014211 
43 1 0.0269599 5.36234 1.79114 
47 3 3.49981 5.42117 1.82863 
84 3 1.78604 7.17064 1.83688 
442 1 1.76723 5.33811 3.58523 
481 2 0.046226 7.12918 3.57484 
485 2 3.5679 7.0977 3.5852 
46 1 5.31196 5.32367 0.00462142 
51 3 7.08304 5.32547 1.80847 
88 1 5.33156 7.09684 1.77878 
89 3 7.12243 7.16527 0.00555906 
446 2 5.32158 5.32836 3.57337 
489 1 7.10993 7.09691 3.56053 
50 1 8.88375 5.33405 0.0188677 
55 3 10.7063 5.33974 1.80131 
92 1 8.89399 7.07197 1.78096 
450 3 8.91684 5.34777 3.60778 
493 2 10.6527 7.11434 3.55866 
59 2 14.2172 5.33871 1.78439 
96 1 12.4485 7.10269 1.76336 
454 2 12.4328 5.35083 3.53373 
497 2 14.2042 7.11345 3.53806 
63 1 17.7424 5.37125 1.7585 
100 1 15.9768 7.15128 1.75284 
104 1 19.5019 7.13018 1.78353 
458 3 15.9356 5.38941 3.51791 
462 3 19.5114 5.29373 3.54969 
501 3 17.7464 7.12352 3.57188 
67 1 21.3007 5.32982 1.74495 
108 1 23.083 7.10221 1.77662 
466 2 23.0853 5.35359 3.57297 
505 2 21.2646 7.11117 3.55394 
70 3 26.6991 5.33675 0.0373523 
71 1 24.8567 5.3397 1.76337 
112 1 26.6128 7.11373 1.76831 
470 2 26.6416 5.3169 3.55216 
509 2 24.867 7.12946 3.56951 
75 2 28.4195 5.32552 1.77371 
113 3 28.4317 7.09294 0.00827364 
116 1 30.1911 7.12072 1.78084 
474 3 30.1447 5.38487 3.54905 
513 1 28.3737 7.12741 3.53895 
78 1 33.755 5.35212 0.0166893 
79 3 31.9445 5.34372 1.77627 
120 1 33.7594 7.11855 1.78733 
478 1 33.7334 5.34328 3.56795 
517 2 31.947 7.1183 3.58001 
82 1 1.78444 8.89306 0.0107756 
83 2 0.0183989 8.89081 1.76319 
87 2 3.55424 8.83705 1.81386 
124 1 1.78797 10.6545 1.78911 
125 1 3.56591 10.6236 0.011033 
482 2 1.80322 8.87137 3.58883 
521 1 0.0253752 10.6417 3.57965 
525 1 3.56227 10.6425 3.55997 
91 2 7.12838 8.8544 1.79569 
128 1 5.34216 10.6271 1.79095 
486 3 5.31198 8.86608 3.56115 
529 3 7.12851 10.56 3.53594 
90 3 8.89839 8.8699 0.0300956 
95 2 10.6511 8.87157 1.80455 
132 1 8.9042 10.672 1.77537 
133 3 10.6371 10.652 0.00480468 
490 3 8.92204 8.86861 3.51963 
533 1 10.6687 10.6453 3.55106 
94 1 12.4143 8.89799 0.014854 
99 2 14.1859 8.8896 1.79183 
136 1 12.4088 10.6693 1.79592 
137 1 14.1805 10.6775 0.0176084 
494 3 12.4637 8.79458 3.55555 
537 1 14.1901 10.6289 3.57718 
98 1 15.951 8.90697 0.00129493 
103 3 17.7555 8.93403 1.81109 
140 2 15.9869 10.6659 1.78718 
144 2 19.5194 10.6527 1.76007 
498 1 15.9628 8.88309 3.5648 
502 3 19.542 8.92511 3.5799 
541 2 17.7564 10.6686 3.55715 
107 2 21.286 8.90557 1.79173 
145 3 21.2864 10.6545 0.000581167 
148 2 23.0927 10.6515 1.77925 
506 1 23.0778 8.87158 3.54255 
545 2 21.2952 10.6605 3.55537 
111 3 24.8391 8.89438 1.80257 
152 1 26.617 10.6427 1.75428 
510 3 26.6333 8.89248 3.5513 
549 2 24.8666 10.6588 3.576 
114 3 30.1269 8.89846 0.0251058 
115 2 28.4062 8.89938 1.76927 
156 2 30.1934 10.649 1.78477 
514 2 30.2057 8.88322 3.55626 
553 3 28.442 10.6304 3.54 
119 3 31.9775 8.84819 1.73787 
157 1 31.9721 10.6484 0.0222446 
160 2 33.7416 10.6369 1.78289 
518 1 33.762 8.86582 3.56014 
557 3 31.9493 10.559 3.57155 
123 1 0.0156713 12.4095 1.79843 
127 1 3.5663 12.4275 1.79102 
161 1 0.0350366 14.1815 0.00766336 
164 1 1.80874 14.1824 1.78381 
165 1 3.56395 14.1781 0.0255906 
522 3 1.76408 12.4063 3.6192 
561 1 0.00846276 14.184 3.58174 
565 1 3.58848 14.1778 3.5666 
126 1 5.3474 12.4293 0.0170952 
131 1 7.11027 12.4401 1.79186 
168 3 5.35644 14.2518 1.85235 
169 1 7.09586 14.1852 0.00076585 
526 2 5.37692 12.3686 3.57954 
569 3 7.14288 14.2428 3.55642 
130 2 8.90477 12.4317 0.0163273 
135 3 10.6666 12.5395 1.76382 
172 3 8.92847 14.209 1.74524 
173 2 10.6599 14.2222 0.00936097 
530 1 8.87906 12.4315 3.56169 
573 2 10.6247 14.2133 3.57242 
134 2 12.4004 12.4329 0.0070245 
139 1 14.1883 12.437 1.81077 
176 2 12.405 14.2029 1.79651 
534 1 12.4396 12.4432 3.58063 
577 3 14.239 14.2789 3.63711 
142 2 19.5112 12.4239 0.00615448 
143 3 17.7518 12.419 1.78788 
180 1 15.9305 14.1823 1.77467 
184 2 19.544 14.2021 1.78202 
538 1 15.9599 12.4479 3.59022 
542 3 19.4851 12.3982 3.5439 
581 3 17.744 14.2272 3.53817 
146 3 23.0656 12.397 0.0144282 
147 3 21.3031 12.4129 1.82423 
185 3 21.3289 14.2218 0.0374749 
188 2 23.0826 14.1722 1.79418 
546 3 23.1161 12.3802 3.59876 
585 1 21.2991 14.1926 3.60613 
151 1 24.8731 12.4227 1.77886 
189 3 24.8213 14.2108 0.0117055 
192 1 26.6369 14.2089 1.79646 
550 3 26.6492 12.413 3.61313 
589 1 24.873 14.2035 3.57781 
155 1 28.3836 12.4252 1.77887 
193 1 28.3867 14.2023 0.00124611 
196 1 30.1716 14.2313 1.77101 
554 3 30.1993 12.4116 3.53383 
593 2 28.4391 14.1937 3.60053 
158 2 33.7217 12.4051 0.0412589 
159 3 31.9662 12.4481 1.81411 
197 2 31.9504 14.2174 0.0032712 
200 2 33.7195 14.192 1.82328 
558 3 33.7174 12.3739 3.55498 
597 3 31.941 14.2524 3.54295 
163 1 0.0407164 15.9869 1.78921 
167 3 3.59086 16.0144 1.76741 
202 3 1.80138 19.5024 0.0505104 
203 3 0.0445683 19.5003 1.83963 
204 3 1.85391 17.7743 1.87349 
207 2 3.52616 19.4859 1.79827 
562 1 1.80222 15.9296 3.58266 
601 3 0.0336155 17.7525 3.65923 
602 2 1.78743 19.5208 3.5946 
605 2 3.56227 17.7176 3.60306 
166 2 5.28821 15.951 0.0102304 
171 1 7.10456 15.9841 1.75368 
206 1 5.28298 19.4792 0.01237 
208 2 5.27512 17.6791 1.78609 
211 1 7.09216 19.4547 1.79566 
566 2 5.33716 15.9618 3.57156 
606 2 5.30065 19.5034 3.56385 
609 1 7.10248 17.7266 3.56248 
175 3 10.7008 15.888 1.75723 
210 2 8.92407 19.457 0.028796 
212 3 8.9242 17.6751 1.78852 
213 3 10.6769 17.7192 0.042262 
215 1 10.664 19.4868 1.80971 
570 2 8.8895 15.9427 3.52459 
610 1 8.87363 19.4981 3.57289 
613 1 10.665 17.7331 3.56078 
179 1 14.1941 15.9743 1.78679 
214 3 12.4158 19.471 0.00792663 
216 2 12.407 17.7243 1.76497 
217 1 14.2165 17.7493 0.0147842 
219 1 14.2241 19.5095 1.79501 
574 1 12.4417 15.9694 3.58266 
614 1 12.4601 19.4958 3.55704 
617 3 14.2353 17.663 3.58443 
182 3 19.5296 15.9341 0.0302376 
183 2 17.7373 15.9278 1.74074 
220 2 15.9949 17.7119 1.78725 
223 1 17.7593 19.5334 1.77045 
224 3 19.5423 17.7203 1.78867 
578 3 16.0354 16.0036 3.54885 
582 1 19.5106 15.9844 3.55872 
618 1 15.9722 19.4983 3.55563 
621 2 17.725 17.7222 3.53872 
622 1 19.5211 19.5512 3.53753 
187 2 21.3296 15.9512 1.8021 
225 3 21.3401 17.6991 0.0735248 
227 3 21.3186 19.5259 1.77384 
228 2 23.0208 17.809 1.77087 
586 2 23.0546 15.9581 3.60172 
625 2 21.3182 17.7746 3.50228 
626 2 23.0878 19.5534 3.51626 
190 1 26.6302 15.9856 0.00696379 
191 1 24.8455 16.0155 1.79078 
229 1 24.8757 17.7752 0.0112118 
230 1 26.6295 19.5622 0.00157482 
231 3 24.8552 19.5247 1.79146 
232 2 26.7127 17.7761 1.77435 
590 1 26.6461 15.9977 3.56907 
629 1 24.8614 17.765 3.54917 
630 1 26.633 19.5236 3.57949 
195 3 28.4116 16.0273 1.81186 
235 2 28.4246 19.4938 1.78992 
236 3 30.1468 17.7885 1.81199 
594 2 30.1692 16.0185 3.55679 
633 3 28.4298 17.8033 3.6276 
634 3 30.1343 19.5721 3.57465 
198 1 33.7532 15.9828 0.00730016 
199 3 31.9849 16.0191 1.76283 
239 1 31.9712 19.5288 1.77595 
240 2 33.7929 17.7751 1.81612 
598 3 33.7257 16.0171 3.55691 
637 3 31.9385 17.7588 3.55649 
638 3 33.7561 19.4895 3.57702 
242 1 1.78138 23.0491 0.0138475 
244 2 1.74685 21.2727 1.79688 
245 3 3.50312 21.2492 0.0518258 
247 3 3.56886 23.0258 1.84894 
642 1 1.74575 23.1065 3.56771 
645 2 3.56185 21.3219 3.51309 
246 3 5.2467 23.0085 0.0187873 
248 2 5.32625 21.2663 1.74125 
251 3 7.04019 23.0047 1.739 
646 2 5.32119 23.0756 3.5093 
649 1 7.0846 21.2712 3.56166 
250 3 8.90064 22.9561 0.062942 
252 2 8.88579 21.269 1.78058 
253 1 10.6955 21.2434 0.0325921 
255 3 10.6615 23.0579 1.75293 
650 3 8.85387 23.0486 3.45213 
653 3 10.6402 21.2771 3.55202 
254 2 12.4051 23.0517 0.0504057 
256 1 12.4715 21.2818 1.80568 
257 1 14.2269 21.298 0.0290298 
259 3 14.2426 23.0558 1.76911 
654 1 12.4368 23.0701 3.53856 
657 3 14.2913 21.3641 3.54076 
258 2 16.0112 23.1132 0.0289676 
260 2 15.9804 21.3356 1.82316 
261 2 17.7705 21.3126 0.0285862 
263 2 17.7523 23.0754 1.79394 
264 3 19.5353 21.3287 1.72146 
658 1 15.9864 23.1225 3.55565 
661 3 17.7247 21.3392 3.51344 
662 1 19.5304 23.0695 3.56626 
265 2 21.318 21.2867 0.00944187 
267 2 21.3212 23.0659 1.79222 
268 3 23.0603 21.2753 1.76579 
308 2 23.0806 23.0697 0.0160135 
665 1 21.3049 21.2885 3.5657 
708 1 23.0889 23.0629 3.56014 
271 2 24.8689 23.0635 1.79781 
272 3 26.6682 21.2758 1.826 
669 1 24.8657 21.2952 3.56017 
670 2 26.6452 23.0814 3.55891 
273 2 28.3942 21.3013 0.0234727 
274 3 30.1736 23.0535 0.0638562 
275 1 28.3968 23.0709 1.78371 
276 2 30.1812 21.3051 1.80431 
673 2 28.3999 21.2863 3.54764 
674 3 30.1484 23.0533 3.52352 
243 1 35.4853 23.0693 1.78862 
278 2 33.6943 23.078 0.0728581 
279 3 31.9199 23.0741 1.78283 
280 3 33.761 21.2724 1.80408 
641 1 35.4962 21.3174 3.5969 
677 1 31.9624 21.3062 3.55646 
678 3 33.6895 23.1096 3.54839 
284 3 1.72205 24.8695 1.78068 
285 1 3.53376 24.8075 0.0326868 
287 1 3.52902 26.647 1.78113 
682 1 1.74569 26.6479 3.54995 
685 1 3.52024 24.869 3.5596 
288 3 5.33168 24.8674 1.77312 
289 3 7.04067 24.8832 0.0075705 
291 3 7.05171 26.6917 1.73629 
686 2 5.33168 26.6314 3.54562 
689 1 7.10406 24.8774 3.53157 
290 3 8.94411 26.748 0.0709844 
292 3 8.84743 24.8061 1.70436 
295 2 10.5956 26.6418 1.75359 
690 3 8.89289 26.691 3.44106 
693 1 10.639 24.8485 3.51504 
296 1 12.4607 24.8678 1.77803 
297 1 14.2021 24.8493 0.00814737 
299 3 14.2406 26.6975 1.76891 
694 1 12.4097 26.6554 3.54176 
697 1 14.2042 24.8759 3.53904 
300 2 15.9631 24.8748 1.75977 
301 3 17.7234 24.82 0.0974754 
302 3 19.5272 26.6003 0.0129838 
303 2 17.7646 26.6619 1.76119 
304 2 19.5628 24.8344 1.74678 
698 3 16.0324 26.6372 3.52282 
701 3 17.7714 24.8668 3.42466 
702 1 19.5525 26.6093 3.5308 
305 3 21.4143 24.8418 0.0526555 
307 2 21.3402 26.5943 1.74538 
666 3 21.289 24.8604 3.5401 
705 2 23.0771 26.5762 3.53764 
706 3 23.1379 24.7882 1.743 
309 2 24.8274 24.837 0.0301618 
311 1 24.8563 26.6162 1.7812 
312 2 26.6257 24.8549 1.78737 
709 3 24.8689 24.843 3.56333 
710 2 26.6256 26.5797 3.54355 
313 1 28.3934 24.8489 0.000786327 
314 1 30.1625 26.5975 0.0180393 
315 3 28.3896 26.6244 1.85156 
316 2 30.1763 24.8416 1.79895 
713 3 28.4022 24.8757 3.58363 
714 2 30.175 26.6035 3.53898 
281 3 35.5019 24.8614 0.0129144 
283 2 35.4902 26.6084 1.71129 
318 3 33.6934 26.6338 0.0126945 
319 3 31.9869 26.6458 1.77339 
320 1 33.7165 24.8493 1.78059 
681 3 35.4708 24.8802 3.51509 
717 1 31.9323 24.8581 3.57058 
718 2 33.7419 26.6135 3.51086 
322 1 1.74824 30.21 0.00465416 
324 1 1.75635 28.422 1.77662 
327 3 3.46699 30.2473 1.80632 
722 2 1.76286 30.1765 3.5493 
725 2 3.50165 28.4305 3.56619 
328 1 5.27662 28.4378 1.7823 
331 2 7.0836 30.1971 1.78357 
726 2 5.28183 30.192 3.56677 
729 1 7.07461 28.4217 3.55177 
330 2 8.88166 30.1786 0.0110448 
332 3 8.88659 28.5032 1.77248 
335 2 10.6652 30.1986 1.76805 
730 2 8.88831 30.1714 3.52882 
733 2 10.611 28.4306 3.51243 
334 3 12.4101 30.1963 0.0228838 
336 1 12.4309 28.4068 1.7615 
339 2 14.2255 30.1948 1.76199 
734 2 12.4496 30.201 3.54856 
737 1 14.2148 28.4252 3.53667 
340 3 16.0146 28.4495 1.72774 
342 2 19.5626 30.1721 -0.000816823 
343 3 17.8031 30.1681 1.78301 
344 2 19.5769 28.3929 1.75481 
738 3 15.978 30.2437 3.55229 
741 2 17.7841 28.4304 3.53043 
742 3 19.5914 30.1416 3.49623 
347 3 21.3128 30.2024 1.66839 
348 1 23.0843 28.385 1.7378 
745 3 21.3102 28.3209 3.52419 
746 1 23.0496 30.1345 3.52146 
351 2 24.8316 30.1867 1.71695 
352 1 26.624 28.4081 1.76284 
749 1 24.8517 28.4025 3.54538 
750 2 26.6373 30.2504 3.55128 
355 1 28.409 30.16 1.76569 
356 1 30.1893 28.4001 1.78159 
753 2 28.4134 28.3721 3.53283 
754 3 30.2062 30.2156 3.53687 
323 2 35.4977 30.1874 1.76731 
359 3 31.9786 30.1563 1.73984 
360 2 33.7105 28.3922 1.74846 
721 1 35.4782 28.4232 3.54213 
757 1 31.9627 28.4117 3.55188 
758 2 33.6956 30.1967 3.51928 
4 1 1.76244 35.4894 1.78973 
362 3 1.77547 33.7491 0.0335844 
364 2 1.78332 31.9536 1.76912 
367 2 3.57149 33.7378 1.75367 
405 1 3.51391 35.493 3.57954 
762 1 1.75342 33.6983 3.56056 
765 1 3.51608 31.9488 3.56017 
8 3 5.2889 35.4746 1.78621 
366 3 5.31936 33.7256 0.0114363 
368 1 5.29136 31.9308 1.79885 
369 3 7.0873 31.9212 0.0838977 
371 3 7.01878 33.6865 1.85658 
766 2 5.27836 33.7285 3.57892 
769 2 7.07497 31.9788 3.57162 
370 1 8.82718 33.7499 0.0183749 
372 1 8.88767 31.9482 1.79809 
373 1 10.6457 31.9941 0.0144192 
375 3 10.6754 33.7738 1.77075 
770 1 8.90953 33.7133 3.55259 
773 3 10.696 31.8768 3.59283 
374 2 12.4694 33.7665 0.00685798 
376 1 12.4207 31.987 1.78839 
379 1 14.2254 33.7528 1.75927 
774 3 12.4511 33.7318 3.57504 
777 2 14.2202 31.97 3.53922 
20 2 15.989 35.502 1.73381 
380 3 15.9991 31.9627 1.7542 
383 3 17.803 33.7313 1.72859 
384 2 19.5619 31.9777 1.7681 
421 1 17.7893 35.4896 3.53197 
778 1 16.0059 33.7397 3.53566 
781 1 17.7972 31.9794 3.55165 
782 3 19.5682 33.7695 3.55619 
387 1 21.3249 33.7727 1.73978 
388 2 23.0863 31.952 1.75275 
785 3 21.3305 31.9587 3.51627 
786 1 23.0816 33.7709 3.51978 
391 2 24.835 33.7236 1.73412 
392 1 26.6082 31.9558 1.77012 
789 3 24.7994 31.9362 3.55878 
790 3 26.6032 33.7047 3.45728 
36 2 30.1942 35.4977 1.77292 
394 3 30.1158 33.7847 0.0272069 
395 2 28.4157 33.6964 1.75004 
396 2 30.1823 31.9002 1.73737 
433 1 28.4029 35.4769 3.51829 
793 3 28.4343 31.9482 3.51444 
794 1 30.1682 33.6919 3.51423 
37 1 31.9573 35.4958 0.00819233 
363 2 35.4799 33.7287 1.79571 
398 1 33.7245 33.7511 0.00489516 
399 1 31.9609 33.704 1.75433 
400 1 33.7383 31.9564 1.77672 
401 1 35.4847 35.4865 3.58499 
437 1 31.9433 35.4895 3.53401 
761 1 35.4787 31.9286 3.55709 
797 2 31.9226 31.8909 3.49238 
798 3 33.6882 33.6827 3.54876 
403 3 0.0234506 1.77055 5.36002 
407 1 3.51688 1.76803 5.34722 
444 2 1.77786 3.53798 5.37243 
802 3 1.76781 1.81445 7.19187 
845 3 3.5184 3.54188 7.13335 
411 1 7.08974 1.77361 5.33671 
448 1 5.31301 3.55168 5.34976 
806 2 5.30708 1.78109 7.12081 
849 3 7.11725 3.55208 7.12744 
415 3 10.6047 1.78207 5.29509 
452 2 8.86367 3.54164 5.29252 
810 1 8.86902 1.76574 7.09233 
813 1 10.6625 0.0064032 7.0897 
853 2 10.6352 3.57265 7.06928 
419 3 14.3078 1.80677 5.32339 
456 1 12.4453 3.54214 5.308 
814 1 12.4367 1.78204 7.07538 
817 1 14.2189 0.00254993 7.09809 
857 2 14.2215 3.54023 7.05199 
420 2 15.9855 0.0315539 5.32062 
423 3 17.7441 1.7328 5.29766 
424 2 19.5712 0.0417502 5.30277 
460 3 15.999 3.57114 5.29575 
464 3 19.5481 3.53408 5.32916 
818 3 16.0104 1.7781 7.13165 
821 2 17.7785 0.0476217 7.09252 
822 3 19.5426 1.7228 7.03683 
861 1 17.7693 3.55945 7.08801 
427 2 21.3517 1.80141 5.30803 
428 3 23.1163 0.107771 5.32626 
468 3 23.1289 3.53685 5.28427 
826 2 23.1235 1.77511 7.05299 
865 1 21.3373 3.57084 7.0767 
431 3 24.8962 1.8439 5.30256 
432 1 26.6309 0.00972849 5.30011 
472 3 26.6999 3.64937 5.29372 
829 3 24.8895 0.0497556 7.08683 
830 3 26.6818 1.84713 7.11081 
869 1 24.8806 3.57385 7.08378 
435 1 28.4087 1.76279 5.30146 
476 3 30.135 3.59119 5.32556 
834 2 30.1729 1.74277 7.03044 
873 2 28.4291 3.54859 7.073 
439 3 31.8796 1.78744 5.31352 
440 3 33.669 0.0109592 5.27617 
480 2 33.686 3.53189 5.31526 
838 1 33.7194 1.76686 7.10409 
841 1 35.4846 3.56926 7.1093 
877 1 31.9234 3.55771 7.09762 
443 2 0.00178954 5.37173 5.38199 
447 1 3.53915 5.32787 5.3577 
484 2 1.79068 7.12329 5.34471 
842 2 1.77088 5.29064 7.15159 
885 1 3.55497 7.08255 7.11938 
451 1 7.09554 5.32033 5.34952 
488 3 5.28588 7.13073 5.30096 
846 3 5.32261 5.29372 7.10799 
889 1 7.08613 7.07647 7.1227 
455 2 10.6507 5.32805 5.33513 
492 1 8.88261 7.11201 5.35672 
850 2 8.90553 5.32048 7.1192 
893 1 10.6587 7.12293 7.11301 
459 1 14.1925 5.33248 5.30968 
496 1 12.4409 7.09263 5.33595 
854 3 12.3903 5.30718 7.08298 
897 2 14.168 7.07821 7.1647 
463 3 17.7343 5.35994 5.34471 
500 1 15.9454 7.12719 5.3513 
504 1 19.5309 7.12163 5.32022 
858 1 15.9457 5.34066 7.1085 
862 3 19.5177 5.36449 7.0905 
901 2 17.7655 7.09585 7.11934 
467 1 21.3269 5.33997 5.30974 
508 3 23.0877 7.15482 5.27492 
866 1 23.0861 5.36146 7.11121 
905 1 21.3274 7.12559 7.10068 
471 1 24.855 5.34828 5.3095 
512 2 26.6279 7.13367 5.31387 
870 2 26.6513 5.32966 7.07103 
909 1 24.862 7.12314 7.09625 
475 2 28.4069 5.32363 5.32009 
516 3 30.0955 7.11122 5.347 
874 2 30.1852 5.36907 7.07794 
913 2 28.4178 7.10194 7.09529 
479 1 31.9503 5.36403 5.31818 
520 3 33.8775 7.1074 5.30087 
878 1 33.6978 5.33465 7.10303 
881 2 35.4827 7.07747 7.17761 
917 3 31.8979 7.08892 7.11249 
483 2 0.0164274 8.85612 5.38954 
487 3 3.43004 8.83237 5.3011 
524 2 1.80521 10.6339 5.36968 
882 1 1.76983 8.86233 7.1425 
921 2 0.0222791 10.652 7.1254 
925 3 3.5755 10.6205 7.11299 
491 1 7.11377 8.86754 5.33427 
528 3 5.33235 10.6272 5.25845 
886 1 5.30821 8.867 7.08044 
929 1 7.09514 10.6265 7.11905 
495 3 10.6881 8.82534 5.20993 
532 1 8.90028 10.6036 5.35234 
890 3 8.89871 8.82977 7.21052 
933 3 10.6436 10.5652 7.16671 
499 2 14.1573 8.85758 5.33434 
536 1 12.4144 10.6377 5.35099 
894 1 12.4033 8.87383 7.11922 
937 1 14.1905 10.6328 7.11243 
503 1 17.7313 8.8842 5.34557 
540 1 15.9501 10.6486 5.37995 
544 2 19.5149 10.6608 5.32349 
898 2 15.9785 8.83849 7.16105 
902 3 19.4898 8.8923 7.05948 
941 1 17.7507 10.637 7.12933 
507 2 21.3053 8.88848 5.31512 
548 2 23.0962 10.6316 5.35589 
906 2 23.1001 8.87642 7.09823 
945 1 21.2924 10.6356 7.11559 
511 3 24.8368 8.90509 5.33586 
552 1 26.637 10.6389 5.33324 
910 3 26.6597 8.85103 7.05736 
949 2 24.8634 10.6479 7.12058 
515 2 28.4146 8.89574 5.32084 
556 3 30.2161 10.5987 5.34636 
914 1 30.179 8.86346 7.12856 
953 2 28.4102 10.6366 7.1055 
519 2 31.9783 8.82021 5.36391 
560 1 33.7442 10.6211 5.35997 
918 1 33.723 8.83683 7.1557 
957 2 31.9539 10.6175 7.12922 
523 3 0.0124998 12.3825 5.39119 
527 1 3.56214 12.4032 5.35339 
564 2 1.78235 14.1651 5.36873 
922 3 1.77335 12.4174 7.09979 
965 3 3.57771 14.2053 7.12318 
531 1 7.12479 12.3951 5.32771 
568 1 5.36657 14.1687 5.32998 
926 1 5.33095 12.3775 7.13959 
969 1 7.13342 14.1795 7.11614 
535 1 10.6557 12.4127 5.36639 
572 3 8.87872 14.2264 5.32096 
930 1 8.90881 12.4195 7.11469 
973 3 10.635 14.2531 7.10713 
539 1 14.1986 12.4385 5.37775 
576 1 12.4186 14.1905 5.36673 
934 3 12.3337 12.4177 7.17577 
977 1 14.1832 14.186 7.13605 
543 1 17.7346 12.4368 5.36261 
580 3 16.0065 14.2614 5.40405 
584 3 19.4561 14.24 5.34675 
938 2 16.0051 12.4809 7.15177 
942 1 19.5353 12.4334 7.10662 
981 3 17.7358 14.2321 7.16579 
547 3 21.3389 12.3246 5.29515 
588 3 23.0896 14.152 5.35392 
946 1 23.0758 12.4225 7.12888 
985 3 21.2856 14.211 7.00906 
551 2 24.8715 12.4322 5.37567 
592 3 26.6778 14.1685 5.36147 
950 3 26.6494 12.3953 7.12328 
989 3 24.9081 14.1822 7.14006 
555 3 28.4559 12.4221 5.35616 
596 3 30.1786 14.2166 5.3705 
954 2 30.1622 12.4214 7.09553 
993 2 28.3697 14.1766 7.12886 
559 1 31.9687 12.3991 5.34174 
600 1 33.7255 14.1927 5.3468 
958 2 33.7396 12.4098 7.11327 
961 1 35.4856 14.1843 7.14578 
997 3 31.9409 14.146 7.17182 
567 3 3.59108 15.9296 5.38519 
603 2 0.00178101 19.5073 5.37069 
604 1 1.82066 17.7382 5.37088 
607 3 3.61135 19.6152 5.20241 
962 1 1.77942 15.9485 7.13863 
1002 3 1.89658 19.5499 7.10417 
1005 3 3.56989 17.746 7.13431 
571 1 7.12486 15.9753 5.35234 
608 3 5.32467 17.7629 5.32723 
611 2 7.06134 19.4977 5.36244 
966 1 5.36867 15.9581 7.11555 
1006 3 5.31294 19.5458 7.12898 
1009 3 7.136 17.7733 7.1782 
575 1 10.6459 15.9844 5.34844 
612 1 8.87119 17.7506 5.34162 
615 2 10.6641 19.5178 5.34478 
970 2 8.89189 15.9899 7.12376 
1010 2 8.883 19.5065 7.12004 
1013 3 10.6009 17.7917 7.09841 
579 3 14.2012 16.0134 5.41479 
616 2 12.4371 17.7317 5.36154 
619 1 14.2013 19.5186 5.33024 
974 2 12.3937 15.9752 7.1153 
1014 1 12.4101 19.5169 7.10971 
1017 2 14.218 17.7494 7.11161 
583 2 17.7299 15.9801 5.3604 
620 2 15.9692 17.7298 5.35059 
623 1 17.7512 19.5452 5.30714 
624 1 19.5326 17.7611 5.31303 
978 2 15.9877 15.9827 7.12073 
982 1 19.5558 15.9964 7.10624 
1018 3 15.9685 19.5354 7.10358 
1021 3 17.7345 17.7388 7.08632 
1022 1 19.526 19.5206 7.09673 
587 3 21.3349 16.0442 5.28687 
627 1 21.3243 19.5185 5.33032 
628 1 23.0799 17.7695 5.33936 
986 1 23.0624 15.9781 7.09711 
1025 2 21.2827 17.7801 7.15003 
1026 2 23.016 19.6055 7.14883 
591 1 24.8538 15.9692 5.35267 
631 1 24.8353 19.5341 5.35513 
632 2 26.6376 17.7462 5.34497 
990 2 26.5763 15.8693 7.13182 
1029 1 24.8581 17.7511 7.12333 
1030 1 26.6184 19.5439 7.11856 
595 1 28.3833 15.9863 5.3639 
635 2 28.396 19.5342 5.34838 
636 1 30.1701 17.7761 5.38033 
994 1 30.1542 15.9725 7.17155 
1033 1 28.3603 17.775 7.13238 
1034 2 30.1824 19.5517 7.16416 
563 3 35.4929 15.9867 5.38111 
599 3 31.9177 15.9638 5.35244 
639 2 31.9444 19.5261 5.31243 
640 1 33.6994 17.7484 5.38875 
998 2 33.6431 15.9692 7.13331 
1001 3 35.4985 17.7397 7.10221 
1037 3 31.9226 17.8097 7.15457 
1038 3 33.6131 19.5608 7.13083 
644 3 1.81105 21.3 5.31847 
647 2 3.54084 23.0467 5.32259 
1042 1 1.7375 23.0864 7.11426 
1045 2 3.55819 21.296 7.12395 
648 2 5.28406 21.2686 5.34681 
651 1 7.08988 23.0818 5.31322 
1046 3 5.27511 23.0626 7.08944 
1049 1 7.10481 21.3141 7.08075 
652 1 8.88803 21.3058 5.2925 
655 3 10.6839 23.0642 5.29777 
1050 1 8.90021 23.1049 7.04807 
1053 1 10.652 21.313 7.0756 
656 1 12.4425 21.2978 5.29613 
659 2 14.204 23.0824 5.3415 
1054 3 12.4476 23.0891 7.06564 
1057 2 14.2092 21.312 7.12214 
660 3 15.9616 21.3166 5.30279 
663 3 17.7564 23.0938 5.34276 
664 3 19.5613 21.3196 5.3717 
1058 1 15.9739 23.0858 7.08971 
1061 1 17.7634 21.3123 7.0892 
1062 2 19.549 23.0741 7.10268 
667 1 21.32 23.0997 5.33504 
668 3 23.052 21.2957 5.37015 
1065 3 21.2804 21.292 7.11082 
1066 3 23.0363 23.0589 7.10553 
671 1 24.8608 23.0661 5.35479 
672 2 26.6319 21.314 5.34731 
1069 1 24.841 21.3244 7.11306 
1070 3 26.7088 23.0673 7.13566 
675 1 28.4123 23.0515 5.3357 
676 1 30.1778 21.3071 5.35064 
1073 2 28.4047 21.2973 7.14169 
1074 3 30.1913 23.0207 7.13635 
643 1 35.481 23.1126 5.36074 
679 2 31.921 23.1043 5.31572 
680 1 33.7242 21.3157 5.34177 
1041 3 35.5009 21.2386 7.09744 
1077 2 31.9471 21.2917 7.12994 
1078 1 33.7213 23.0882 7.12622 
684 1 1.73733 24.884 5.34213 
687 2 3.52437 26.6812 5.3591 
1082 3 1.74495 26.6813 7.09734 
1085 1 3.52516 24.8596 7.08511 
688 1 5.29606 24.8436 5.31367 
691 3 7.08473 26.6226 5.35483 
1086 3 5.3611 26.6227 7.09235 
1089 2 7.05486 24.9065 7.04525 
692 1 8.8842 24.8544 5.26971 
695 1 10.6371 26.6518 5.29467 
1090 2 8.79552 26.6478 7.02984 
1093 1 10.6579 24.8705 7.07183 
696 2 12.41 24.835 5.32628 
699 1 14.2095 26.6549 5.30466 
1094 3 12.4537 26.6369 7.04631 
1097 3 14.1393 24.8548 7.06449 
700 1 16.0048 24.8893 5.32519 
703 3 17.7765 26.7022 5.26297 
704 2 19.4657 24.8353 5.34891 
1098 3 16.0118 26.6571 7.11159 
1101 3 17.8355 24.8138 7.17496 
1144 2 19.4504 26.5923 7.09936 
707 1 21.3121 26.5942 5.33869 
711 2 23.136 24.8457 5.29903 
1102 1 21.3048 24.8523 7.12548 
1106 2 23.1214 26.5982 7.0861 
712 2 26.6468 24.8391 5.35882 
1108 1 24.8569 24.8276 7.12214 
1109 3 24.8824 26.5831 5.33977 
1110 2 26.6665 26.5847 7.13458 
715 2 28.4022 26.5727 5.2955 
716 3 30.1454 24.8759 5.34319 
1113 2 28.4305 24.83 7.09875 
1114 2 30.1415 26.6149 7.12067 
683 1 35.4922 26.6464 5.31853 
719 1 31.9584 26.6384 5.3476 
720 1 33.7275 24.8718 5.3376 
1081 3 35.4873 24.9228 7.18667 
1117 1 31.947 24.8463 7.12125 
1118 2 33.796 26.577 7.15681 
723 2 0.0313753 30.1555 5.31656 
724 3 1.77138 28.4612 5.29056 
727 1 3.53449 30.1875 5.32402 
1121 2 0.0667656 28.3671 7.09973 
1122 1 1.76701 30.1558 7.09174 
1125 2 3.53467 28.3922 7.09836 
728 1 5.30796 28.3982 5.33507 
731 1 7.09198 30.183 5.32568 
1126 2 5.34582 30.1785 7.07133 
1129 3 7.07199 28.3344 7.11091 
732 1 8.86907 28.4036 5.29486 
735 2 10.6833 30.2034 5.27954 
1130 1 8.87156 30.1648 7.08001 
1133 1 10.6423 28.4034 7.07859 
736 2 12.4399 28.44 5.31261 
739 3 14.1809 30.1961 5.31532 
1134 1 12.4139 30.1861 7.09205 
1137 2 14.2247 28.4066 7.07349 
740 3 16.0112 28.4412 5.31997 
743 2 17.7852 30.1889 5.30368 
744 2 19.5465 28.4179 5.31221 
1138 1 15.9945 30.2035 7.09797 
1141 1 17.784 28.4245 7.11367 
1142 3 19.5426 30.2073 7.09977 
747 3 21.3149 30.1389 5.34981 
748 1 21.3097 28.3744 7.10932 
1145 1 23.0861 28.3654 5.33432 
1146 2 23.093 30.1915 7.10257 
751 2 24.8506 30.1736 5.33677 
752 1 26.6237 28.3767 5.28671 
1149 2 24.8713 28.3795 7.08089 
1150 1 26.6816 30.1198 7.0727 
755 1 28.4222 30.1748 5.29285 
756 2 30.1555 28.3778 5.32309 
1153 3 28.4442 28.2637 6.94841 
1154 1 30.1729 30.1486 7.10353 
759 1 31.9619 30.1762 5.32397 
760 1 33.7426 28.4065 5.33877 
1157 1 31.9636 28.3998 7.10944 
1158 1 33.7347 30.1669 7.09019 
404 3 1.77929 35.4826 5.36317 
764 2 1.77732 31.9314 5.32987 
767 3 3.51047 33.6863 5.34722 
805 1 3.53963 35.4967 7.12324 
1162 1 1.76618 33.6914 7.10156 
1165 2 3.57385 31.9614 7.0536 
408 3 5.30382 35.4783 5.33713 
768 3 5.30987 31.9635 5.32261 
771 3 7.09183 33.6921 5.25744 
809 1 7.08908 35.4712 7.10738 
1166 1 5.3298 33.7248 7.10292 
1169 3 7.07913 31.9682 7.0885 
412 3 8.84496 35.4805 5.31596 
772 1 8.87856 31.938 5.32674 
775 1 10.6627 33.7348 5.32555 
1170 3 8.89681 33.7098 7.10282 
1173 2 10.6423 31.9739 7.10266 
416 3 12.4818 35.4971 5.31206 
776 2 12.4403 31.9631 5.29696 
779 1 14.2275 33.7243 5.33984 
1174 2 12.4123 33.7072 7.09318 
1177 2 14.2108 31.9368 7.06573 
780 3 15.9955 31.9623 5.34255 
783 2 17.7785 33.7465 5.33091 
784 1 19.5716 31.9573 5.31635 
1178 2 16.0235 33.7277 7.07119 
1181 3 17.7631 32.0017 7.06122 
1182 1 19.5498 33.7376 7.09099 
787 1 21.3505 33.7443 5.3169 
788 2 23.1053 31.9398 5.27812 
825 1 21.3413 35.4959 7.08493 
1185 1 21.3346 31.952 7.08968 
1186 3 23.1421 33.6948 7.11318 
791 1 24.8451 33.7648 5.28703 
792 3 26.5841 31.937 5.30211 
1189 3 24.8258 31.8538 7.03839 
1190 3 26.5652 33.6799 7.11079 
436 3 30.1874 35.4374 5.31509 
795 3 28.3884 33.7049 5.31784 
796 1 30.1938 31.9479 5.32811 
833 3 28.3916 35.4781 7.09038 
1193 3 28.4153 31.9833 7.12941 
1194 1 30.1958 33.7313 7.1117 
763 1 35.4918 33.709 5.32894 
799 2 31.9579 33.7266 5.29384 
800 1 33.7122 31.9456 5.31636 
801 1 35.4782 35.4831 7.10035 
837 1 31.9582 35.5011 7.10712 
1161 2 35.4949 31.9499 7.11133 
1197 2 31.9157 31.9238 7.17088 
1198 1 33.7006 33.7059 7.08569 
803 3 0.00743392 1.78025 8.89721 
807 2 3.5395 1.78909 8.87979 
844 2 1.75893 3.57445 8.92024 
1202 3 1.79925 1.77316 10.5815 
1205 2 3.52417 0.00550517 10.6321 
1241 2 0.00154196 3.50783 10.6572 
1245 2 3.54296 3.54789 10.64 
808 3 5.32853 0.0262045 8.91114 
811 2 7.09528 1.74522 8.87508 
848 1 5.34842 3.55092 8.86389 
1206 2 5.32173 1.76012 10.6432 
1209 2 7.12321 0.000777066 10.6579 
1249 2 7.11895 3.51538 10.6323 
815 1 10.6554 1.78429 8.85252 
852 1 8.8867 3.55879 8.85869 
1210 1 8.88897 1.7688 10.619 
1253 2 10.6613 3.56587 10.6138 
819 1 14.2079 1.79568 8.86098 
856 2 12.4356 3.63251 8.80885 
1214 1 12.4038 1.76959 10.6261 
1257 2 14.2069 3.54558 10.6539 
820 2 16.0219 0.00664623 8.85561 
823 3 17.7692 1.76471 8.83349 
824 2 19.5356 0.00942571 8.87797 
860 2 15.9843 3.55344 8.83148 
864 2 19.564 3.55285 8.80134 
1218 1 15.9987 1.75703 10.6051 
1222 1 19.5647 1.78543 10.6111 
1261 1 17.7685 3.55625 10.5948 
827 1 21.3171 1.76903 8.84554 
828 1 23.0874 0.00881681 8.86701 
868 3 23.0575 3.51945 8.86379 
1226 3 23.0732 1.79124 10.6426 
1265 2 21.3471 3.54077 10.5904 
831 1 24.8532 1.79691 8.87225 
832 1 26.6437 0.0340194 8.89382 
872 2 26.6582 3.55549 8.8883 
1229 2 24.8765 0.0388825 10.6625 
1230 2 26.6531 1.8002 10.6872 
1269 1 24.8447 3.56605 10.6439 
835 1 28.4501 1.78208 8.88254 
876 1 30.2142 3.57313 8.87997 
1234 1 30.1935 1.78421 10.6807 
1273 3 28.3774 3.56364 10.6494 
839 1 31.9853 1.77141 8.89841 
880 1 33.7176 3.56243 8.9072 
1237 1 31.9892 0.0106294 10.6831 
1238 3 33.7944 1.76779 10.669 
1277 1 31.9661 3.58654 10.6926 
847 1 3.56459 5.32482 8.89904 
884 1 1.77507 7.07098 8.91179 
1242 3 1.74447 5.2877 10.6739 
1285 1 3.54576 7.08889 10.6789 
851 1 7.11806 5.32252 8.87566 
888 1 5.33389 7.11757 8.89713 
1246 1 5.34127 5.3485 10.6521 
1289 2 7.10678 7.13214 10.6631 
855 3 10.6768 5.27812 8.80827 
892 2 8.90589 7.11994 8.87141 
1250 1 8.88953 5.31423 10.6289 
1293 1 10.652 7.07259 10.6494 
859 3 14.1669 5.30216 8.84914 