ITEM: TIMESTEP
1000
ITEM: NUMBER OF ATOMS
3999
ITEM: BOX BOUNDS pp pp pp
0.0000000000000000e+00 3.5503000000000000e+01
0.0000000000000000e+00 3.5503000000000000e+01
0.0000000000000000e+00 3.5503000000000000e+01
ITEM: ATOMS id type x y z 
7 3 3.52053 1.73713 1.75708 
44 1 1.77442 3.5616 1.79375 
45 1 3.52962 3.58061 0.0121394 
402 1 1.75512 1.79099 3.57936 
445 3 3.5259 3.5917 3.55496 
6 3 5.2748 1.78069 0.0428004 
9 3 7.03996 0.0675662 0.0133484 
11 2 7.09026 1.79056 1.78068 
48 1 5.2967 3.57121 1.80883 
49 1 7.10192 3.56368 0.0101901 
406 1 5.29771 1.78701 3.5609 
409 1 7.08162 0.00985836 3.55324 
449 3 7.12673 3.57593 3.54744 
10 3 8.91959 1.79203 0.0061479 
12 1 8.86162 0.000696112 1.77912 
13 3 10.6914 0.0207594 0.0228276 
15 2 10.6312 1.76845 1.77493 
52 1 8.88873 3.58547 1.79196 
410 3 8.89697 1.7703 3.55451 
413 2 10.6755 0.000756071 3.57325 
453 1 10.6674 3.57641 3.54502 
14 1 12.4293 1.80815 0.00741502 
16 1 12.4465 0.0172173 1.78771 
19 2 14.2372 1.78409 1.80121 
56 1 12.442 3.57719 1.765 
57 2 14.223 3.52733 0.00114188 
414 1 12.4493 1.77869 3.55622 
417 3 14.2414 0.0014427 3.55919 
457 3 14.2579 3.5883 3.47861 
23 2 17.7603 1.79984 1.77823 
24 1 19.5665 0.0292766 1.74876 
60 2 15.994 3.57955 1.80912 
61 3 17.7191 3.5013 0.0224714 
64 3 19.4971 3.5624 1.74127 
418 3 16.0402 1.75602 3.48105 
422 1 19.5608 1.79937 3.52817 
461 2 17.7433 3.57836 3.56751 
27 1 21.3153 1.80691 1.7223 
28 1 23.083 0.0365408 1.73645 
68 1 23.0935 3.59438 1.74636 
425 3 21.3402 0.0239904 3.59139 
426 1 23.1048 1.81743 3.50465 
465 1 21.3208 3.58249 3.51748 
30 3 26.6479 1.7506 0.00995071 
31 2 24.9102 1.81592 1.72675 
32 1 26.6243 0.00236503 1.73837 
72 2 26.6559 3.57904 1.73541 
429 1 24.8583 0.0413393 3.5057 
430 1 26.6415 1.81982 3.52543 
469 2 24.8776 3.5653 3.5784 
35 1 28.4058 1.76704 1.7508 
76 1 30.1828 3.56045 1.76604 
434 3 30.163 1.74474 3.5302 
473 2 28.4501 3.56425 3.54627 
1 1 35.4909 0.00804349 0.00868449 
3 2 35.4718 1.77415 1.7787 
38 3 33.7257 1.77122 0.0505994 
39 2 31.9647 1.81264 1.80843 
40 3 33.727 0.0449426 1.84105 
80 1 33.7349 3.56569 1.78705 
438 3 33.7388 1.80539 3.60696 
441 1 35.5009 3.56936 3.59109 
477 3 31.9243 3.56357 3.58204 
42 2 1.77461 5.35918 0.0142538 
43 1 0.0270247 5.36235 1.79122 
47 3 3.49984 5.42119 1.82871 
84 3 1.7861 7.17065 1.83695 
442 1 1.7673 5.33811 3.58534 
481 2 0.0462931 7.12919 3.57494 
485 2 3.56796 7.0977 3.58532 
46 1 5.31196 5.32368 0.00466168 
51 3 7.08302 5.32549 1.80855 
88 1 5.33157 7.09684 1.77886 
89 3 7.1224 7.16529 0.00560406 
446 2 5.32162 5.32835 3.5735 
489 1 7.10994 7.09692 3.56068 
50 1 8.88371 5.33407 0.0189258 
55 3 10.7062 5.33976 1.8014 
92 1 8.89395 7.07198 1.78105 
450 3 8.91681 5.34777 3.6079 
493 2 10.6527 7.11432 3.55878 
59 2 14.2172 5.33874 1.78447 
96 1 12.4485 7.10268 1.76346 
454 2 12.4328 5.35083 3.53388 
497 2 14.2041 7.11343 3.53819 
63 1 17.7424 5.37128 1.75859 
100 1 15.9768 7.15129 1.75294 
104 1 19.5019 7.13019 1.78363 
458 3 15.9356 5.38942 3.51804 
462 3 19.5113 5.29373 3.54978 
501 3 17.7463 7.1235 3.57201 
67 1 21.3007 5.32985 1.74504 
108 1 23.083 7.10222 1.77671 
466 2 23.0853 5.35361 3.57307 
505 2 21.2646 7.11116 3.55404 
70 3 26.6992 5.33678 0.0374414 
71 1 24.8567 5.33974 1.76346 
112 1 26.6129 7.11374 1.76838 
470 2 26.6416 5.31692 3.55223 
509 2 24.8671 7.12946 3.56959 
75 2 28.4196 5.32554 1.77378 
113 3 28.4317 7.09295 0.00833706 
116 1 30.1912 7.12072 1.7809 
474 3 30.1448 5.38488 3.54913 
513 1 28.3738 7.12741 3.53902 
78 1 33.7551 5.35214 0.0167333 
79 3 31.9446 5.34374 1.77634 
120 1 33.7594 7.11856 1.78739 
478 1 33.7334 5.34328 3.56803 
517 2 31.9471 7.1183 3.58008 
82 1 1.78448 8.89306 0.0108104 
83 2 0.0184645 8.89081 1.76326 
87 2 3.55427 8.83705 1.81395 
124 1 1.78802 10.6545 1.78919 
125 1 3.56594 10.6236 0.0110734 
482 2 1.80329 8.87139 3.58894 
521 1 0.0254486 10.6417 3.57975 
525 1 3.56233 10.6426 3.5601 
91 2 7.12835 8.8544 1.7958 
128 1 5.34217 10.6271 1.79105 
486 3 5.31201 8.8661 3.56132 
529 3 7.12851 10.56 3.53609 
90 3 8.89834 8.86989 0.0301336 
95 2 10.6511 8.87155 1.80465 
132 1 8.90416 10.672 1.77547 
133 3 10.6371 10.652 0.00488878 
490 3 8.92203 8.86861 3.51978 
533 1 10.6687 10.6452 3.5512 
94 1 12.4142 8.89796 0.0149398 
99 2 14.1859 8.88957 1.79193 
136 1 12.4088 10.6693 1.79603 
137 1 14.1804 10.6774 0.0177153 
494 3 12.4637 8.79457 3.55569 
537 1 14.19 10.6288 3.57731 
98 1 15.9509 8.90695 0.00138067 
103 3 17.7555 8.93402 1.8112 
140 2 15.9869 10.6658 1.78728 
144 2 19.5194 10.6526 1.76018 
498 1 15.9628 8.88307 3.56493 
502 3 19.5419 8.92508 3.58003 
541 2 17.7564 10.6686 3.55728 
107 2 21.286 8.90555 1.79182 
145 3 21.2864 10.6544 0.000696128 
148 2 23.0928 10.6515 1.77935 
506 1 23.0778 8.87155 3.54265 
545 2 21.2952 10.6604 3.55547 
111 3 24.8391 8.89436 1.80267 
152 1 26.617 10.6426 1.75436 
510 3 26.6334 8.89246 3.55138 
549 2 24.8666 10.6588 3.57608 
114 3 30.127 8.89846 0.0251552 
115 2 28.4063 8.89937 1.76934 
156 2 30.1935 10.649 1.78483 
514 2 30.2057 8.88321 3.55633 
553 3 28.442 10.6304 3.54007 
119 3 31.9776 8.84819 1.73794 
157 1 31.9721 10.6483 0.0222895 
160 2 33.7417 10.6369 1.78295 
518 1 33.7621 8.86583 3.56022 
557 3 31.9494 10.559 3.57163 
123 1 0.015729 12.4095 1.79851 
127 1 3.56633 12.4275 1.7911 
161 1 0.0350802 14.1815 0.00772897 
164 1 1.80879 14.1824 1.7839 
165 1 3.56395 14.178 0.0256408 
522 3 1.76416 12.4063 3.61932 
561 1 0.00856054 14.1841 3.58187 
565 1 3.58855 14.1778 3.56673 
126 1 5.34741 12.4293 0.0171466 
131 1 7.11026 12.4401 1.79196 
168 3 5.35644 14.2518 1.85242 
169 1 7.09584 14.1851 0.000835267 
526 2 5.37696 12.3687 3.5797 
569 3 7.14288 14.2428 3.55654 
130 2 8.90472 12.4317 0.0163957 
135 3 10.6665 12.5394 1.76391 
172 3 8.92842 14.2089 1.74535 
173 2 10.6598 14.2221 0.00950411 
530 1 8.87903 12.4316 3.56181 
573 2 10.6246 14.2133 3.57256 
134 2 12.4003 12.4328 0.00713157 
139 1 14.1883 12.437 1.81088 
176 2 12.405 14.2029 1.79663 
534 1 12.4395 12.4432 3.58076 
577 3 14.239 14.2789 3.63719 
142 2 19.5112 12.4238 0.00628333 
143 3 17.7517 12.4189 1.788 
180 1 15.9305 14.1822 1.77481 
184 2 19.544 14.202 1.78215 
538 1 15.9599 12.4478 3.59033 
542 3 19.485 12.3982 3.54403 
581 3 17.744 14.2272 3.53826 
146 3 23.0657 12.3968 0.0145544 
147 3 21.3031 12.4128 1.82439 
185 3 21.329 14.2216 0.0376525 
188 2 23.0826 14.1721 1.79428 
546 3 23.1162 12.3801 3.59884 
585 1 21.2991 14.1926 3.60623 
151 1 24.8732 12.4226 1.77896 
189 3 24.8215 14.2107 0.0118402 
192 1 26.6369 14.2088 1.79655 
550 3 26.6493 12.4129 3.6132 
589 1 24.873 14.2035 3.57787 
155 1 28.3837 12.4252 1.77894 
193 1 28.3868 14.2023 0.00133429 
196 1 30.1717 14.2312 1.77109 
554 3 30.1994 12.4116 3.53391 
593 2 28.4392 14.1937 3.6006 
158 2 33.7217 12.4051 0.0413094 
159 3 31.9663 12.4481 1.81419 
197 2 31.9505 14.2174 0.00333391 
200 2 33.7195 14.1919 1.82338 
558 3 33.7175 12.3739 3.55507 
597 3 31.9411 14.2524 3.54305 
163 1 0.040781 15.9869 1.7893 
167 3 3.5909 16.0144 1.76749 
202 3 1.80138 19.5023 0.0505792 
203 3 0.0446292 19.5003 1.83974 
204 3 1.85397 17.7743 1.87361 
207 2 3.52618 19.4859 1.79838 
562 1 1.8023 15.9297 3.58279 
601 3 0.0337275 17.7525 3.65936 
602 2 1.78749 19.5208 3.59475 
605 2 3.56233 17.7176 3.60319 
166 2 5.28821 15.951 0.0102972 
171 1 7.10454 15.9841 1.7538 
206 1 5.28298 19.4792 0.0124637 
208 2 5.27513 17.6791 1.78619 
211 1 7.09216 19.4547 1.79578 
566 2 5.3372 15.9618 3.57171 
606 2 5.30069 19.5034 3.56397 
609 1 7.10248 17.7266 3.56266 
175 3 10.7008 15.888 1.75737 
210 2 8.92405 19.457 0.028911 
212 3 8.92416 17.6751 1.78866 
213 3 10.6768 17.7192 0.04244 
215 1 10.664 19.4868 1.80985 
570 2 8.88946 15.9428 3.52473 
610 1 8.87361 19.4982 3.57307 
613 1 10.6649 17.7331 3.56093 
179 1 14.194 15.9742 1.78692 
214 3 12.4157 19.471 0.00806964 
216 2 12.4069 17.7243 1.76511 
217 1 14.2164 17.7492 0.0149779 
219 1 14.2241 19.5094 1.79515 
574 1 12.4416 15.9694 3.58277 
614 1 12.4601 19.4959 3.55719 
617 3 14.2353 17.663 3.58456 
182 3 19.5297 15.9339 0.0304777 
183 2 17.7373 15.9277 1.74088 
220 2 15.9948 17.7118 1.78738 
223 1 17.7593 19.5332 1.77061 
224 3 19.5423 17.7202 1.78881 
578 3 16.0353 16.0036 3.54892 
582 1 19.5106 15.9843 3.55883 
618 1 15.9722 19.4982 3.55574 
621 2 17.725 17.7222 3.53884 
622 1 19.5211 19.5511 3.53764 
187 2 21.3297 15.9511 1.80223 
225 3 21.3403 17.6989 0.0737551 
227 3 21.3186 19.5258 1.77391 
228 2 23.0209 17.8089 1.77101 
586 2 23.0546 15.958 3.60178 
625 2 21.3183 17.7746 3.50238 
626 2 23.0879 19.5534 3.51632 
190 1 26.6303 15.9855 0.00709148 
191 1 24.8456 16.0154 1.79089 
229 1 24.8759 17.7751 0.0113858 
230 1 26.6297 19.5621 0.00170561 
231 3 24.8554 19.5247 1.79159 
232 2 26.7128 17.7761 1.77446 
590 1 26.6462 15.9977 3.56914 
629 1 24.8615 17.765 3.54924 
630 1 26.6331 19.5235 3.57957 
195 3 28.4117 16.0273 1.81195 
235 2 28.4247 19.4938 1.79003 
236 3 30.1469 17.7885 1.81208 
594 2 30.1693 16.0185 3.55688 
633 3 28.4299 17.8033 3.62768 
634 3 30.1344 19.5721 3.57475 
198 1 33.7533 15.9827 0.00736648 
199 3 31.985 16.019 1.76292 
239 1 31.9713 19.5288 1.77606 
240 2 33.793 17.7751 1.81622 
598 3 33.7258 16.0172 3.55703 
637 3 31.9386 17.7588 3.5566 
638 3 33.7562 19.4895 3.57714 
242 1 1.7814 23.0491 0.0139251 
244 2 1.74688 21.2727 1.79698 
245 3 3.5031 21.2492 0.0519061 
247 3 3.56888 23.0258 1.84903 
642 1 1.74582 23.1066 3.56785 
645 2 3.5619 21.3219 3.51321 
246 3 5.24665 23.0085 0.0188746 
248 2 5.32626 21.2663 1.74135 
251 3 7.04017 23.0047 1.73909 
646 2 5.32124 23.0756 3.50945 
649 1 7.08461 21.2713 3.56183 
250 3 8.90063 22.9561 0.0630293 
252 2 8.88576 21.269 1.78071 
253 1 10.6955 21.2435 0.032699 
255 3 10.6615 23.0579 1.75303 
650 3 8.85385 23.0486 3.45225 
653 3 10.6402 21.2772 3.55215 
254 2 12.4051 23.0517 0.0505076 
256 1 12.4715 21.2818 1.8058 
257 1 14.2269 21.2979 0.0292106 
259 3 14.2426 23.0558 1.76917 
654 1 12.4368 23.0701 3.5387 
657 3 14.2913 21.3641 3.54082 
258 2 16.0112 23.1131 0.0291892 
260 2 15.9804 21.3356 1.82332 
261 2 17.7705 21.3126 0.0288797 
263 2 17.7523 23.0753 1.79413 
264 3 19.5353 21.3286 1.72163 
658 1 15.9864 23.1225 3.55574 
661 3 17.7246 21.3391 3.5135 
662 1 19.5304 23.0694 3.56636 
265 2 21.3182 21.2866 0.00973069 
267 2 21.3213 23.0659 1.7924 
268 3 23.0604 21.2752 1.76596 
308 2 23.0808 23.0697 0.0162627 
665 1 21.305 21.2884 3.56578 
708 1 23.089 23.0629 3.5602 
271 2 24.869 23.0635 1.79794 
272 3 26.6684 21.2758 1.82614 
669 1 24.8658 21.2951 3.56022 
670 2 26.6453 23.0813 3.55899 
273 2 28.3944 21.3012 0.0235868 
274 3 30.1737 23.0535 0.0639958 
275 1 28.397 23.0708 1.78384 
276 2 30.1813 21.305 1.80441 
673 2 28.4 21.2862 3.54773 
674 3 30.1485 23.0533 3.52363 
243 1 35.4853 23.0693 1.78873 
278 2 33.6943 23.078 0.0729546 
279 3 31.92 23.074 1.78295 
280 3 33.7611 21.2724 1.80419 
641 1 35.4963 21.3174 3.59705 
677 1 31.9625 21.3062 3.55658 
678 3 33.6896 23.1096 3.54856 
284 3 1.72208 24.8695 1.78078 
285 1 3.53375 24.8075 0.0327769 
287 1 3.52904 26.647 1.78124 
682 1 1.74576 26.6479 3.55009 
685 1 3.5203 24.869 3.55977 
288 3 5.33167 24.8674 1.77324 
289 3 7.04059 24.8832 0.00766789 
291 3 7.05169 26.6917 1.7364 
686 2 5.3317 26.6314 3.54578 
689 1 7.10407 24.8774 3.53172 
290 3 8.94409 26.748 0.071003 
292 3 8.8474 24.8061 1.7044 
295 2 10.5956 26.6418 1.75371 
690 3 8.89286 26.691 3.44122 
693 1 10.639 24.8485 3.51517 
296 1 12.4607 24.8678 1.77815 
297 1 14.2021 24.8494 0.00829817 
299 3 14.2406 26.6975 1.76903 
694 1 12.4097 26.6553 3.5419 
697 1 14.2041 24.8759 3.53917 
300 2 15.9631 24.8748 1.75995 
301 3 17.7235 24.82 0.0977617 
302 3 19.5273 26.6004 0.0132584 
303 2 17.7646 26.662 1.7614 
304 2 19.5629 24.8344 1.74702 
698 3 16.0324 26.6372 3.52295 
701 3 17.7714 24.8668 3.42473 
702 1 19.5526 26.6093 3.53092 
305 3 21.4144 24.8418 0.0530705 
307 2 21.3403 26.5943 1.74562 
666 3 21.2891 24.8603 3.54016 
705 2 23.0773 26.5762 3.53772 
706 3 23.1381 24.7882 1.74318 
309 2 24.8276 24.837 0.0303937 
311 1 24.8564 26.6163 1.78133 
312 2 26.6259 24.8549 1.7875 
709 3 24.8691 24.843 3.5634 
710 2 26.6257 26.5797 3.54364 
313 1 28.3935 24.8489 0.000955985 
314 1 30.1626 26.5975 0.0181756 
315 3 28.3898 26.6244 1.85167 
316 2 30.1765 24.8416 1.79908 
713 3 28.4023 24.8757 3.58374 
714 2 30.1751 26.6035 3.53908 
281 3 35.5019 24.8614 0.0129691 
283 2 35.4903 26.6084 1.71138 
318 3 33.6935 26.6338 0.0127678 
319 3 31.9871 26.6458 1.77352 
320 1 33.7165 24.8493 1.7807 
681 3 35.4709 24.8802 3.51526 
717 1 31.9325 24.8581 3.57072 
718 2 33.742 26.6135 3.51101 
322 1 1.74825 30.21 0.00473192 
324 1 1.75638 28.4221 1.77674 
327 3 3.467 30.2473 1.80644 
722 2 1.76295 30.1765 3.54946 
725 2 3.50168 28.4305 3.5664 
328 1 5.27661 28.4379 1.78241 
331 2 7.08358 30.1971 1.78369 
726 2 5.28184 30.192 3.56694 
729 1 7.0746 28.4217 3.55193 
330 2 8.8816 30.1786 0.0111487 
332 3 8.88653 28.5032 1.77257 
335 2 10.6651 30.1986 1.76816 
730 2 8.88828 30.1713 3.52893 
733 2 10.611 28.4306 3.51256 
334 3 12.41 30.1963 0.0230583 
336 1 12.4308 28.4068 1.76165 
339 2 14.2255 30.1949 1.76213 
734 2 12.4495 30.201 3.54867 
737 1 14.2148 28.4252 3.53679 
340 3 16.0146 28.4496 1.72787 
342 2 19.5627 30.1723 -0.000511107 
343 3 17.8031 30.1682 1.78311 
344 2 19.577 28.393 1.75502 
738 3 15.978 30.2437 3.55238 
741 2 17.7841 28.4305 3.5305 
742 3 19.5914 30.1417 3.49634 
347 3 21.3129 30.2025 1.66858 
348 1 23.0844 28.385 1.738 
745 3 21.3102 28.321 3.52427 
746 1 23.0497 30.1346 3.52155 
351 2 24.8317 30.1867 1.71709 
352 1 26.6242 28.4082 1.76296 
749 1 24.8519 28.4025 3.54546 
750 2 26.6374 30.2505 3.55136 
355 1 28.4091 30.16 1.76581 
356 1 30.1894 28.4002 1.78172 
753 2 28.4135 28.3721 3.53292 
754 3 30.2063 30.2157 3.53698 
323 2 35.4977 30.1874 1.76742 
359 3 31.9787 30.1564 1.73995 
360 2 33.7105 28.3922 1.74857 
721 1 35.4783 28.4232 3.54228 
757 1 31.9628 28.4117 3.55201 
758 2 33.6957 30.1967 3.51942 
4 1 1.76249 35.4894 1.78982 
362 3 1.77552 33.7492 0.0336317 
364 2 1.78338 31.9536 1.76923 
367 2 3.57151 33.7378 1.75377 
405 1 3.51395 35.4929 3.57966 
762 1 1.75349 33.6983 3.56069 
765 1 3.51612 31.9488 3.56033 
8 3 5.28889 35.4746 1.78629 
366 3 5.31933 33.7256 0.011511 
368 1 5.29136 31.9308 1.79897 
369 3 7.08726 31.9212 0.0839844 
371 3 7.01874 33.6865 1.85668 
766 2 5.27839 33.7285 3.57905 
769 2 7.07495 31.9788 3.57177 
370 1 8.82712 33.75 0.018461 
372 1 8.88761 31.9482 1.7982 
373 1 10.6456 31.9942 0.0145478 
375 3 10.6753 33.7739 1.77085 
770 1 8.9095 33.7133 3.5527 
773 3 10.696 31.8768 3.59291 
374 2 12.4693 33.7666 0.00701064 
376 1 12.4207 31.9871 1.78852 
379 1 14.2253 33.7529 1.7594 
774 3 12.451 33.7319 3.57512 
777 2 14.2201 31.9701 3.53933 
20 2 15.9889 35.502 1.73391 
380 3 15.9991 31.9628 1.75433 
383 3 17.8029 33.7314 1.72871 
384 2 19.562 31.9778 1.76826 
421 1 17.7893 35.4897 3.53204 
778 1 16.0059 33.7398 3.53575 
781 1 17.7972 31.9795 3.5517 
782 3 19.5682 33.7696 3.55623 
387 1 21.3249 33.7728 1.73988 
388 2 23.0865 31.9521 1.75288 
785 3 21.3306 31.9588 3.51631 
786 1 23.0816 33.771 3.51984 
391 2 24.8351 33.7237 1.73422 
392 1 26.6083 31.9559 1.77024 
789 3 24.7995 31.9363 3.55887 
790 3 26.6032 33.7048 3.45735 
36 2 30.1943 35.4977 1.77301 
394 3 30.1159 33.7847 0.0273413 
395 2 28.4158 33.6964 1.75014 
396 2 30.1824 31.9003 1.73749 
433 1 28.403 35.477 3.51836 
793 3 28.4344 31.9482 3.51453 
794 1 30.1683 33.6919 3.51432 
37 1 31.9574 35.4959 0.00825857 
363 2 35.48 33.7288 1.79581 
398 1 33.7245 33.7511 0.00495817 
399 1 31.961 33.704 1.75442 
400 1 33.7384 31.9564 1.77682 
401 1 35.4848 35.4864 3.58512 
437 1 31.9433 35.4895 3.5341 
761 1 35.4788 31.9286 3.55723 
797 2 31.9227 31.8909 3.49249 
798 3 33.6882 33.6827 3.54888 
403 3 0.0235539 1.77052 5.36013 
407 1 3.51697 1.76797 5.34742 
444 2 1.77795 3.53794 5.37257 
802 3 1.76799 1.81438 7.19206 
845 3 3.51857 3.54176 7.1336 
411 1 7.08977 1.77356 5.33691 
448 1 5.31306 3.55164 5.34993 
806 2 5.3072 1.78099 7.12106 
849 3 7.11731 3.55197 7.12769 
415 3 10.6047 1.78205 5.29526 
452 2 8.86368 3.54158 5.29271 
810 1 8.86908 1.76563 7.0926 
813 1 10.6624 0.00630253 7.08996 
853 2 10.6351 3.57254 7.06956 
419 3 14.3077 1.80675 5.32356 
456 1 12.4453 3.54209 5.30821 
814 1 12.4366 1.78192 7.07567 
817 1 14.2187 0.00251988 7.0983 
857 2 14.2215 3.54011 7.05223 
420 2 15.9854 0.0316146 5.32075 
423 3 17.744 1.73285 5.29769 
424 2 19.5712 0.0418672 5.30283 
460 3 15.9989 3.5711 5.2959 
464 3 19.5481 3.53405 5.3293 
818 3 16.0102 1.77799 7.13193 
821 2 17.7784 0.0477164 7.0926 
822 3 19.5425 1.72278 7.03697 
861 1 17.7691 3.55934 7.08823 
427 2 21.3517 1.80146 5.30811 
428 3 23.1163 0.107888 5.32631 
468 3 23.1289 3.53684 5.28439 
826 2 23.1235 1.77514 7.0531 
865 1 21.3372 3.5708 7.07684 
431 3 24.8963 1.84396 5.30261 
432 1 26.631 0.00977853 5.30018 
472 3 26.6999 3.64939 5.29379 
829 3 24.8895 0.0498231 7.0869 
830 3 26.6818 1.84715 7.11089 
869 1 24.8806 3.57385 7.08386 
435 1 28.4088 1.76282 5.30154 
476 3 30.1351 3.5912 5.32563 
834 2 30.173 1.74277 7.0305 
873 2 28.4291 3.5486 7.07305 
439 3 31.8797 1.78744 5.31361 
440 3 33.6692 0.0109448 5.27631 
480 2 33.6861 3.53188 5.31535 
838 1 33.7195 1.76683 7.10421 
841 1 35.4848 3.56921 7.10943 
877 1 31.9235 3.5577 7.09771 
443 2 0.00188034 5.37171 5.3821 
447 1 3.53921 5.32784 5.35786 
484 2 1.79077 7.12331 5.34485 
842 2 1.77098 5.2906 7.15175 
885 1 3.55508 7.08253 7.11957 
451 1 7.09559 5.32029 5.3497 
488 3 5.28593 7.13073 5.30115 
846 3 5.32269 5.29364 7.1082 
889 1 7.08617 7.07645 7.12292 
455 2 10.6507 5.32802 5.33532 
492 1 8.8826 7.112 5.35691 
850 2 8.90556 5.32038 7.11945 
893 1 10.6586 7.12293 7.11321 
459 1 14.1924 5.33243 5.30985 
496 1 12.4408 7.09263 5.33612 
854 3 12.3903 5.30712 7.08318 
897 2 14.168 7.07818 7.16486 
463 3 17.7343 5.35988 5.34486 
500 1 15.9454 7.12717 5.35146 
504 1 19.5308 7.12159 5.32035 
858 1 15.9456 5.34056 7.1087 
862 3 19.5176 5.36441 7.09066 
901 2 17.7654 7.09579 7.11947 
467 1 21.3269 5.33995 5.30985 
508 3 23.0877 7.15479 5.27502 
866 1 23.0861 5.36143 7.1113 
905 1 21.3273 7.12556 7.10078 
471 1 24.8549 5.34827 5.30958 
512 2 26.6279 7.13367 5.31394 
870 2 26.6513 5.32965 7.07108 
909 1 24.862 7.12312 7.09631 
475 2 28.4069 5.32364 5.32016 
516 3 30.0956 7.11122 5.34707 
874 2 30.1853 5.36907 7.078 
913 2 28.4178 7.10194 7.09535 
479 1 31.9504 5.36403 5.31827 
520 3 33.8775 7.10741 5.30097 
878 1 33.6979 5.33464 7.10313 
881 2 35.4828 7.07748 7.17774 
917 3 31.898 7.08893 7.11257 
483 2 0.0165325 8.85615 5.38966 
487 3 3.43015 8.8324 5.30128 
524 2 1.80531 10.6339 5.36982 
882 1 1.76996 8.86239 7.14267 
921 2 0.0224066 10.6521 7.12553 
925 3 3.57568 10.6206 7.11322 
491 1 7.1138 8.86759 5.33448 
528 3 5.33242 10.6272 5.25867 
886 1 5.30831 8.86707 7.08065 
929 1 7.09523 10.6267 7.11934 
495 3 10.688 8.82536 5.21011 
532 1 8.90027 10.6037 5.35255 
890 3 8.89873 8.82984 7.21077 
933 3 10.6436 10.5653 7.16693 
499 2 14.1572 8.85759 5.3345 
536 1 12.4144 10.6377 5.35117 
894 1 12.4033 8.87387 7.11941 
937 1 14.1905 10.633 7.11262 
503 1 17.7313 8.8842 5.34571 
540 1 15.95 10.6486 5.3801 
544 2 19.5149 10.6608 5.3236 
898 2 15.9784 8.83851 7.16121 
902 3 19.4897 8.89229 7.05959 
941 1 17.7506 10.637 7.12947 
507 2 21.3052 8.88845 5.31521 
548 2 23.0962 10.6316 5.35596 
906 2 23.1 8.87639 7.0983 
945 1 21.2924 10.6356 7.11566 
511 3 24.8368 8.90507 5.33593 
552 1 26.637 10.6389 5.3333 
910 3 26.6597 8.851 7.05741 
949 2 24.8634 10.6479 7.12063 
515 2 28.4147 8.89573 5.3209 
556 3 30.2162 10.5987 5.34644 
914 1 30.1791 8.86346 7.12863 
953 2 28.4103 10.6366 7.10556 
519 2 31.9783 8.82022 5.36399 
560 1 33.7443 10.6211 5.36007 
918 1 33.7231 8.83686 7.1558 
957 2 31.9539 10.6175 7.12931 
523 3 0.0126471 12.3826 5.39135 
527 1 3.56224 12.4033 5.35359 
564 2 1.78248 14.1652 5.36893 
922 3 1.77355 12.4176 7.10001 
965 3 3.57792 14.2055 7.12351 
531 1 7.12484 12.3952 5.32792 
568 1 5.36666 14.1688 5.33021 
926 1 5.33112 12.3777 7.1399 
969 1 7.13357 14.1797 7.11652 
535 1 10.6557 12.4127 5.36652 
572 3 8.87869 14.2264 5.32109 
930 1 8.90888 12.4197 7.11498 
973 3 10.6349 14.2533 7.10718 
539 1 14.1985 12.4385 5.37788 
576 1 12.4185 14.1905 5.36686 
934 3 12.3336 12.4179 7.176 
977 1 14.183 14.1861 7.13625 
543 1 17.7345 12.4368 5.36274 
580 3 16.0064 14.2613 5.40406 
584 3 19.456 14.2399 5.34685 
938 2 16.005 12.481 7.15197 
942 1 19.5353 12.4334 7.10673 
981 3 17.7356 14.2321 7.16597 
547 3 21.3389 12.3245 5.29522 
588 3 23.0897 14.1519 5.35396 
946 1 23.0758 12.4225 7.12893 
985 3 21.2856 14.2109 7.00906 
551 2 24.8715 12.4321 5.37573 
592 3 26.6779 14.1685 5.36153 
950 3 26.6495 12.3953 7.12332 
989 3 24.9082 14.1821 7.14009 
555 3 28.4559 12.4221 5.35622 
596 3 30.1787 14.2166 5.37059 
954 2 30.1623 12.4214 7.09559 
993 2 28.3697 14.1766 7.12892 
559 1 31.9688 12.3991 5.34183 
600 1 33.7257 14.1928 5.34693 
958 2 33.7397 12.4098 7.11337 
961 1 35.4858 14.1844 7.14596 
997 3 31.941 14.1461 7.17192 
567 3 3.59123 15.9297 5.38537 
603 2 0.00196088 19.5073 5.37091 
604 1 1.82083 17.7382 5.3711 
607 3 3.61146 19.6153 5.20252 
962 1 1.77968 15.9487 7.13893 
1002 3 1.89703 19.55 7.10452 
1005 3 3.5702 17.7461 7.13456 
571 1 7.12491 15.9753 5.35258 
608 3 5.32475 17.7629 5.32743 
611 2 7.06136 19.4978 5.3627 
966 1 5.36889 15.9582 7.11597 
1006 3 5.31308 19.546 7.12929 
1009 3 7.13609 17.7735 7.17859 
575 1 10.6458 15.9844 5.34857 
612 1 8.87116 17.7507 5.34184 
615 2 10.664 19.5178 5.34499 
970 2 8.89189 15.9901 7.12416 
1010 2 8.883 19.5067 7.12037 
1013 3 10.6008 17.7918 7.09859 
579 3 14.2011 16.0134 5.41485 
616 2 12.4371 17.7317 5.3617 
619 1 14.2013 19.5186 5.3304 
974 2 12.3936 15.9753 7.11551 
1014 1 12.41 19.517 7.10986 
1017 2 14.2179 17.7494 7.11175 
583 2 17.7298 15.9801 5.36053 
620 2 15.9692 17.7298 5.35074 
623 1 17.7512 19.5451 5.30726 
624 1 19.5326 17.761 5.31309 
978 2 15.9875 15.9827 7.12093 
982 1 19.5557 15.9963 7.10631 
1018 3 15.9684 19.5353 7.10384 
1021 3 17.7344 17.7386 7.08635 
1022 1 19.526 19.5205 7.09671 
587 3 21.3349 16.0441 5.28692 
627 1 21.3244 19.5184 5.33036 
628 1 23.08 17.7695 5.33937 
986 1 23.0624 15.978 7.09713 
1025 2 21.2827 17.78 7.14999 
1026 2 23.0161 19.6054 7.14884 
591 1 24.8539 15.9692 5.35271 
631 1 24.8354 19.534 5.35516 
632 2 26.6377 17.7461 5.34503 
990 2 26.5764 15.8693 7.13187 
1029 1 24.8582 17.751 7.12333 
1030 1 26.6185 19.5439 7.11859 
595 1 28.3834 15.9862 5.36397 
635 2 28.3961 19.5342 5.34846 
636 1 30.1702 17.7761 5.38042 
994 1 30.1543 15.9725 7.17163 
1033 1 28.3604 17.7749 7.13244 
1034 2 30.1825 19.5517 7.16424 
563 3 35.493 15.9868 5.38131 
599 3 31.9179 15.9638 5.35256 
639 2 31.9445 19.5261 5.31255 
640 1 33.6995 17.7485 5.38891 
998 2 33.6432 15.9693 7.13347 
1001 3 35.4987 17.7398 7.10245 
1037 3 31.9227 17.8097 7.15471 
1038 3 33.6133 19.5609 7.13104 
644 3 1.8112 21.3 5.31868 
647 2 3.54093 23.0467 5.32279 
1042 1 1.73772 23.0864 7.11457 
1045 2 3.55847 21.2961 7.12435 
648 2 5.28414 21.2686 5.34702 
651 1 7.08995 23.0818 5.31347 
1046 3 5.27526 23.0626 7.08967 
1049 1 7.10492 21.3142 7.08117 
652 1 8.88805 21.3058 5.29271 
655 3 10.6838 23.0642 5.29792 
1050 1 8.90029 23.1049 7.04844 
1053 1 10.652 21.3131 7.07591 
656 1 12.4425 21.2979 5.29627 
659 2 14.204 23.0824 5.34168 
1054 3 12.4477 23.0891 7.06573 
1057 2 14.2092 21.312 7.12241 
660 3 15.9616 21.3166 5.30281 
663 3 17.7563 23.0937 5.3429 
664 3 19.5612 21.3195 5.37172 
1058 1 15.9739 23.0857 7.08993 
1061 1 17.7633 21.3121 7.08937 
1062 2 19.5491 23.0739 7.10248 
667 1 21.3201 23.0996 5.33501 
668 3 23.0521 21.2956 5.37009 
1065 3 21.2806 21.2918 7.11065 
1066 3 23.0365 23.0588 7.10542 
671 1 24.861 23.0661 5.3548 
672 2 26.632 21.314 5.34735 
1069 1 24.8411 21.3244 7.11303 
1070 3 26.7089 23.0673 7.13569 
675 1 28.4124 23.0515 5.33577 
676 1 30.1779 21.3071 5.35074 
1073 2 28.4048 21.2973 7.14175 
1074 3 30.1914 23.0207 7.13645 
643 1 35.4812 23.1126 5.36096 
679 2 31.9212 23.1042 5.31586 
680 1 33.7244 21.3157 5.34195 
1041 3 35.5012 21.2385 7.09771 
1077 2 31.9472 21.2917 7.13008 
1078 1 33.7215 23.0882 7.12644 
684 1 1.7375 24.884 5.34239 
687 2 3.52445 26.6812 5.35935 
1082 3 1.74526 26.6813 7.09771 
1085 1 3.52538 24.8596 7.0855 
688 1 5.29613 24.8436 5.3139 
691 3 7.08475 26.6226 5.35498 
1086 3 5.36132 26.6226 7.09274 
1089 2 7.05493 24.9065 7.04556 
692 1 8.88422 24.8544 5.26995 
695 1 10.6371 26.6518 5.29484 
1090 2 8.79557 26.6478 7.03015 
1093 1 10.658 24.8705 7.07211 
696 2 12.41 24.835 5.32645 
699 1 14.2095 26.6549 5.30477 
1094 3 12.4537 26.6369 7.04645 
1097 3 14.1393 24.8548 7.06464 
700 1 16.0048 24.8892 5.3253 
703 3 17.7765 26.7023 5.263 
704 2 19.4657 24.8353 5.34896 
1098 3 16.0119 26.6571 7.11164 
1101 3 17.8355 24.8138 7.17513 
1144 2 19.4505 26.5923 7.09926 
707 1 21.3122 26.5942 5.33865 
711 2 23.1361 24.8456 5.29903 
1102 1 21.3049 24.8523 7.12543 
1106 2 23.1215 26.5982 7.08601 
712 2 26.6469 24.8391 5.35887 
1108 1 24.857 24.8276 7.12213 
1109 3 24.8825 26.5831 5.3398 
1110 2 26.6666 26.5847 7.13462 
715 2 28.4023 26.5727 5.29557 
716 3 30.1455 24.8759 5.3433 
1113 2 28.4306 24.83 7.09882 
1114 2 30.1416 26.6149 7.12076 
683 1 35.4924 26.6463 5.31876 
719 1 31.9585 26.6384 5.34774 
720 1 33.7276 24.8718 5.3378 
1081 3 35.4876 24.9228 7.187 
1117 1 31.9471 24.8463 7.12139 
1118 2 33.7963 26.5769 7.15706 
723 2 0.0315527 30.1555 5.31677 
724 3 1.77154 28.4612 5.29075 
727 1 3.53459 30.1875 5.32428 
1121 2 0.0670333 28.367 7.09994 
1122 1 1.76727 30.1557 7.09207 
1125 2 3.5349 28.392 7.09876 
728 1 5.30802 28.3982 5.33532 
731 1 7.09199 30.183 5.32588 
1126 2 5.34599 30.1784 7.07169 
1129 3 7.07208 28.3344 7.11118 
732 1 8.86907 28.4036 5.29504 
735 2 10.6833 30.2033 5.27966 
1130 1 8.8716 30.1647 7.08022 
1133 1 10.6423 28.4033 7.07884 
736 2 12.4399 28.4399 5.31274 
739 3 14.1808 30.1962 5.31546 
1134 1 12.4138 30.1861 7.09221 
1137 2 14.2247 28.4066 7.07357 
740 3 16.0112 28.4413 5.32001 
743 2 17.7852 30.1889 5.30374 
744 2 19.5465 28.4179 5.31224 
1138 1 15.9945 30.2036 7.09804 
1141 1 17.784 28.4245 7.1138 
1142 3 19.5428 30.2074 7.0995 
747 3 21.315 30.139 5.34979 
748 1 21.3099 28.3745 7.10919 
1145 1 23.0862 28.3655 5.33429 
1146 2 23.0932 30.1916 7.1025 
751 2 24.8507 30.1736 5.33678 
752 1 26.6238 28.3768 5.28676 
1149 2 24.8714 28.3795 7.08087 
1150 1 26.6816 30.1199 7.07274 
755 1 28.4223 30.1748 5.29292 
756 2 30.1556 28.3778 5.32319 
1153 3 28.4443 28.2638 6.94847 
1154 1 30.173 30.1486 7.10363 
759 1 31.962 30.1762 5.32411 
760 1 33.7428 28.4064 5.33894 
1157 1 31.9637 28.3998 7.10958 
1158 1 33.7349 30.1668 7.09038 
404 3 1.77942 35.4825 5.36335 
764 2 1.77745 31.9314 5.33009 
767 3 3.51058 33.6863 5.34741 
805 1 3.53982 35.4966 7.12355 
1162 1 1.76638 33.6913 7.10181 
1165 2 3.57409 31.9613 7.05396 
408 3 5.30386 35.4782 5.33728 
768 3 5.30989 31.9634 5.32281 
771 3 7.09183 33.6921 5.25757 
809 1 7.08917 35.4712 7.10755 
1166 1 5.32995 33.7247 7.10317 
1169 3 7.07923 31.9681 7.08867 
412 3 8.84499 35.4805 5.31607 
772 1 8.87858 31.9379 5.32685 
775 1 10.6627 33.7347 5.32564 
1170 3 8.8968 33.7097 7.10278 
1173 2 10.6422 31.9739 7.10292 
416 3 12.4817 35.4971 5.31219 
776 2 12.4402 31.9631 5.29708 
779 1 14.2274 33.7244 5.33991 
1174 2 12.4122 33.7071 7.09343 
1177 2 14.2106 31.9369 7.06581 
780 3 15.9954 31.9624 5.34259 
783 2 17.7784 33.7466 5.33095 
784 1 19.5716 31.9574 5.31633 
1178 2 16.0234 33.7279 7.07127 
1181 3 17.7631 32.002 7.06104 
1182 1 19.5499 33.7378 7.09092 
787 1 21.3506 33.7444 5.31689 
788 2 23.1053 31.94 5.27813 
825 1 21.3412 35.496 7.08498 
1185 1 21.3348 31.9522 7.08958 
1186 3 23.1422 33.6949 7.11319 
791 1 24.8452 33.7649 5.28707 
792 3 26.5842 31.9371 5.30216 
1189 3 24.8259 31.8539 7.03839 
1190 3 26.5652 33.6799 7.11085 
436 3 30.1875 35.4375 5.31517 
795 3 28.3885 33.7049 5.31791 
796 1 30.1939 31.9479 5.32821 
833 3 28.3917 35.4781 7.09045 
1193 3 28.4153 31.9833 7.12947 
1194 1 30.1959 33.7313 7.11178 
763 1 35.4919 33.709 5.3291 
799 2 31.958 33.7266 5.29393 
800 1 33.7124 31.9456 5.31651 
801 1 35.4784 35.483 7.10053 
837 1 31.9584 35.501 7.10722 
1161 2 35.4951 31.9499 7.11156 
1197 2 31.9159 31.9238 7.17101 
1198 1 33.7008 33.7059 7.08584 
803 3 0.00767142 1.78016 8.89746 
807 2 3.53973 1.78886 8.88014 
844 2 1.75911 3.57431 8.92042 
1202 3 1.79966 1.77287 10.5818 
1205 2 3.52463 0.0051553 10.6325 
1241 2 0.00174675 3.50771 10.6574 
1245 2 3.54321 3.54761 10.6403 
808 3 5.32896 0.0258513 8.9117 
811 2 7.09542 1.74486 8.87551 
848 1 5.34858 3.55072 8.86417 
1206 2 5.32209 1.75965 10.6437 
1249 2 7.11912 3.51507 10.6326 
815 1 10.6554 1.78394 8.85304 
852 1 8.8868 3.55849 8.85909 
1210 1 8.88911 1.7682 10.6198 
1253 2 10.6614 3.56543 10.6143 
819 1 14.2077 1.79542 8.86149 
856 2 12.4356 3.63227 8.80922 
1214 1 12.4038 1.76896 10.6268 
1257 2 14.2067 3.54526 10.6543 
820 2 16.0217 0.00658217 8.85591 
823 3 17.7689 1.7645 8.83389 
824 2 19.5355 0.00949248 8.87808 
860 2 15.9842 3.55321 8.83177 
864 2 19.5639 3.55272 8.80153 
1218 1 15.9985 1.75659 10.6057 
1222 1 19.5644 1.7852 10.6114 
1261 1 17.7683 3.556 10.5951 
827 1 21.317 1.76901 8.84573 
828 1 23.0874 0.00888079 8.86713 
868 3 23.0574 3.51939 8.86388 
1226 3 23.0731 1.79117 10.6427 
1265 2 21.3469 3.54066 10.5906 
831 1 24.8532 1.79691 8.87234 
832 1 26.6437 0.0340535 8.89389 
872 2 26.6582 3.55548 8.88836 
1229 2 24.8765 0.0389167 10.6626 
1230 2 26.6531 1.80021 10.6873 
1269 1 24.8447 3.56601 10.6439 
835 1 28.4502 1.78209 8.88259 
876 1 30.2143 3.57313 8.88002 
1234 1 30.1936 1.7842 10.6807 
1273 3 28.3774 3.56363 10.6494 
839 1 31.9854 1.77138 8.89849 
880 1 33.7178 3.56238 8.90731 
1237 1 31.9894 0.0105775 10.6832 
1238 3 33.7946 1.7677 10.6691 
1277 1 31.9662 3.58652 10.6926 
847 1 3.56472 5.32473 8.89925 
884 1 1.7752 7.07097 8.91194 
1242 3 1.74466 5.2876 10.6741 
1285 1 3.54595 7.08886 10.6791 
851 1 7.11816 5.32238 8.87587 
888 1 5.334 7.11753 8.89735 
1246 1 5.34142 5.34825 10.6524 
1289 2 7.10682 7.13209 10.6633 
855 3 10.6768 5.27796 8.80844 
892 2 8.90588 7.11991 8.87164 
1250 1 8.88962 5.31398 10.6292 
1293 1 10.6519 7.07254 10.6495 
859 3 14.1667 5.30197 8.84935 
896 2 12.4008 7.06484 8.86752 
1254 1 12.4208 5.29949 10.6459 