ITEM: TIMESTEP
1000
ITEM: NUMBER OF ATOMS
3999
ITEM: BOX BOUNDS pp pp pp
0.0000000000000000e+00 3.5503000000000000e+01
0.0000000000000000e+00 3.5503000000000000e+01
0.0000000000000000e+00 3.5503000000000000e+01
ITEM: ATOMS id type x y z 
7 3 3.52049 1.73711 1.75706 
44 1 1.77438 3.56158 1.79375 
45 1 3.52958 3.58061 0.0121685 
402 1 1.75508 1.79097 3.57932 
445 3 3.52585 3.59167 3.55493 
6 3 5.27478 1.78069 0.0428365 
9 3 7.03995 0.067528 0.0133722 
11 2 7.09026 1.79054 1.78067 
48 1 5.29668 3.57119 1.80883 
49 1 7.10189 3.56369 0.0102229 
406 1 5.29768 1.78697 3.56085 
409 1 7.0816 0.00981968 3.5532 
449 3 7.12672 3.57591 3.54742 
10 3 8.91959 1.79203 0.00617986 
12 1 8.86163 0.000662155 1.7791 
13 3 10.6914 0.0207067 0.022825 
15 2 10.6312 1.76841 1.77492 
52 1 8.88873 3.58545 1.79195 
410 3 8.89697 1.77024 3.55447 
413 2 10.6755 0.000699957 3.57323 
453 1 10.6674 3.57637 3.54497 
14 1 12.4294 1.80811 0.00743465 
16 1 12.4465 0.0171586 1.7877 
19 2 14.2373 1.78404 1.80119 
56 1 12.442 3.57715 1.76499 
57 2 14.223 3.5273 0.00115467 
414 1 12.4493 1.77864 3.55618 
417 3 14.2414 0.00137278 3.55919 
457 3 14.258 3.58827 3.47855 
23 2 17.7603 1.79977 1.7782 
24 1 19.5665 0.0291957 1.74874 
60 2 15.9941 3.57951 1.8091 
61 3 17.7191 3.50125 0.0224763 
64 3 19.4971 3.56235 1.74126 
418 3 16.0402 1.75597 3.48103 
422 1 19.5608 1.79931 3.52814 
461 2 17.7434 3.57832 3.56747 
27 1 21.3153 1.80684 1.72228 
28 1 23.083 0.0364688 1.73643 
68 1 23.0935 3.59433 1.74632 
425 3 21.3402 0.0239163 3.59138 
426 1 23.1048 1.81738 3.50462 
465 1 21.3209 3.58246 3.51743 
30 3 26.6478 1.75051 0.00991508 
31 2 24.9102 1.81587 1.72672 
32 1 26.6242 0.00230738 1.73834 
72 2 26.6558 3.57901 1.73538 
429 1 24.8583 0.0412847 3.50567 
430 1 26.6415 1.81978 3.5254 
469 2 24.8776 3.56527 3.57837 
35 1 28.4057 1.767 1.75077 
76 1 30.1828 3.56042 1.76602 
434 3 30.163 1.74471 3.53016 
473 2 28.4501 3.56423 3.54624 
1 1 35.4909 0.00802142 0.00869835 
3 2 35.4718 1.77413 1.77869 
38 3 33.7257 1.77119 0.0506071 
39 2 31.9647 1.81262 1.80841 
40 3 33.727 0.0449079 1.84104 
80 1 33.7349 3.56567 1.78703 
438 3 33.7388 1.80537 3.60693 
441 1 35.5009 3.56934 3.59107 
477 3 31.9242 3.56356 3.58201 
42 2 1.77457 5.35917 0.0142653 
43 1 0.0269769 5.36234 1.7912 
47 3 3.4998 5.42117 1.82871 
84 3 1.78604 7.17064 1.83695 
442 1 1.76725 5.3381 3.5853 
481 2 0.0462485 7.12919 3.5749 
485 2 3.56791 7.0977 3.58527 
46 1 5.31192 5.32368 0.00470041 
51 3 7.08301 5.32547 1.80855 
88 1 5.33154 7.09684 1.77886 
89 3 7.12239 7.16526 0.00564962 
446 2 5.32158 5.32835 3.57345 
489 1 7.10991 7.09691 3.56061 
50 1 8.88371 5.33407 0.0189608 
55 3 10.7063 5.33975 1.8014 
92 1 8.89395 7.07197 1.78105 
450 3 8.91681 5.34776 3.60786 
493 2 10.6527 7.11433 3.55873 
59 2 14.2172 5.33872 1.78447 
96 1 12.4485 7.10269 1.76346 
454 2 12.4328 5.35082 3.53382 
497 2 14.2041 7.11343 3.53814 
63 1 17.7424 5.37125 1.75858 
100 1 15.9768 7.15128 1.75293 
104 1 19.5019 7.13018 1.78362 
458 3 15.9356 5.3894 3.51798 
462 3 19.5114 5.29372 3.54975 
501 3 17.7464 7.12351 3.57194 
67 1 21.3007 5.32983 1.74502 
108 1 23.083 7.10221 1.77669 
466 2 23.0853 5.35359 3.57302 
505 2 21.2646 7.11116 3.55399 
70 3 26.6992 5.33677 0.0374315 
71 1 24.8567 5.33971 1.76343 
112 1 26.6129 7.11373 1.76837 
470 2 26.6416 5.3169 3.5522 
509 2 24.8671 7.12946 3.56955 
75 2 28.4196 5.32552 1.77375 
113 3 28.4317 7.09295 0.00832491 
116 1 30.1912 7.12072 1.78088 
474 3 30.1448 5.38487 3.54909 
513 1 28.3738 7.1274 3.53899 
78 1 33.755 5.35213 0.0167355 
79 3 31.9445 5.34373 1.77632 
120 1 33.7594 7.11856 1.78737 
478 1 33.7334 5.34327 3.56801 
517 2 31.9471 7.1183 3.58005 
82 1 1.78443 8.89306 0.0108321 
83 2 0.0184131 8.89082 1.76324 
87 2 3.55423 8.83706 1.81393 
124 1 1.78797 10.6545 1.78918 
125 1 3.56589 10.6236 0.0111032 
482 2 1.80324 8.87139 3.58889 
521 1 0.025402 10.6418 3.57972 
525 1 3.56228 10.6426 3.56005 
91 2 7.12834 8.8544 1.79577 
128 1 5.34215 10.6271 1.79103 
486 3 5.31197 8.8661 3.56124 
529 3 7.12848 10.56 3.53604 
90 3 8.89834 8.86988 0.0302028 
95 2 10.6511 8.87156 1.80464 
132 1 8.90416 10.672 1.77548 
133 3 10.6371 10.652 0.00492841 
490 3 8.922 8.86862 3.51971 
533 1 10.6687 10.6453 3.55115 
94 1 12.4143 8.89796 0.014972 
99 2 14.1859 8.88958 1.79193 
136 1 12.4088 10.6693 1.79602 
137 1 14.1805 10.6774 0.0177451 
494 3 12.4637 8.79458 3.55564 
537 1 14.19 10.6289 3.57726 
98 1 15.9509 8.90695 0.00141432 
103 3 17.7555 8.93402 1.81119 
140 2 15.9869 10.6659 1.78727 
144 2 19.5194 10.6527 1.76016 
498 1 15.9628 8.88309 3.56487 
502 3 19.542 8.9251 3.57998 
541 2 17.7564 10.6686 3.55721 
107 2 21.286 8.90556 1.7918 
145 3 21.2865 10.6544 0.000691486 
148 2 23.0928 10.6515 1.77932 
506 1 23.0778 8.87157 3.5426 
545 2 21.2952 10.6604 3.55542 
111 3 24.8391 8.89437 1.80265 
152 1 26.617 10.6427 1.75434 
510 3 26.6334 8.89247 3.55135 
549 2 24.8666 10.6588 3.57604 
114 3 30.1269 8.89847 0.0251507 
115 2 28.4062 8.89938 1.76932 
156 2 30.1935 10.649 1.78481 
514 2 30.2057 8.88322 3.5563 
553 3 28.442 10.6304 3.54004 
119 3 31.9775 8.8482 1.73792 
157 1 31.9721 10.6484 0.0222833 
160 2 33.7416 10.6369 1.78294 
518 1 33.762 8.86583 3.56019 
557 3 31.9493 10.559 3.5716 
123 1 0.0156871 12.4095 1.7985 
127 1 3.56629 12.4275 1.79109 
161 1 0.0350373 14.1815 0.00772635 
164 1 1.80875 14.1824 1.78389 
165 1 3.56392 14.178 0.0256592 
522 3 1.7641 12.4063 3.61929 
561 1 0.00851595 14.1841 3.58184 
565 1 3.5885 14.1778 3.56669 
126 1 5.34737 12.4293 0.0171761 
131 1 7.11025 12.4401 1.79195 
168 3 5.35642 14.2519 1.85242 
169 1 7.09582 14.1852 0.000876713 
526 2 5.37692 12.3687 3.57964 
569 3 7.14287 14.2428 3.55652 
130 2 8.90472 12.4317 0.0164375 
135 3 10.6666 12.5394 1.76391 
172 3 8.92843 14.209 1.74534 
173 2 10.6598 14.2221 0.00952897 
530 1 8.87903 12.4316 3.56178 
573 2 10.6247 14.2133 3.57254 
134 2 12.4003 12.4328 0.00715942 
139 1 14.1883 12.437 1.81087 
176 2 12.405 14.2029 1.79662 
534 1 12.4396 12.4433 3.58073 
577 3 14.239 14.2789 3.6372 
142 2 19.5112 12.4239 0.00627196 
143 3 17.7518 12.419 1.78799 
180 1 15.9305 14.1823 1.77478 
184 2 19.5441 14.202 1.78212 
538 1 15.9599 12.4479 3.59031 
542 3 19.4851 12.3982 3.54399 
581 3 17.744 14.2272 3.53824 
146 3 23.0657 12.3969 0.0145335 
147 3 21.3031 12.4128 1.82437 
185 3 21.329 14.2216 0.037614 
188 2 23.0826 14.1722 1.79425 
546 3 23.1162 12.3801 3.59881 
585 1 21.2991 14.1926 3.6062 
151 1 24.8732 12.4227 1.77893 
189 3 24.8214 14.2108 0.0117988 
192 1 26.6369 14.2088 1.79652 
550 3 26.6493 12.413 3.61317 
589 1 24.873 14.2035 3.57784 
155 1 28.3837 12.4252 1.77892 
193 1 28.3868 14.2023 0.00130315 
196 1 30.1717 14.2313 1.77106 
554 3 30.1994 12.4116 3.53387 
593 2 28.4392 14.1937 3.60057 
158 2 33.7217 12.4051 0.0413056 
159 3 31.9663 12.4481 1.81416 
197 2 31.9504 14.2174 0.0033184 
200 2 33.7195 14.192 1.82335 
558 3 33.7174 12.3739 3.55505 
597 3 31.941 14.2524 3.54302 
163 1 0.0407459 15.9869 1.78928 
167 3 3.59087 16.0144 1.76749 
202 3 1.80137 19.5024 0.050583 
203 3 0.0445999 19.5003 1.83971 
204 3 1.85394 17.7743 1.87358 
207 2 3.52617 19.4859 1.79836 
562 1 1.80226 15.9297 3.58276 
601 3 0.0336917 17.7525 3.65933 
602 2 1.78747 19.5208 3.59472 
605 2 3.56231 17.7176 3.60317 
166 2 5.28818 15.951 0.0103369 
171 1 7.10454 15.9841 1.7538 
206 1 5.28297 19.4793 0.0124696 
208 2 5.27512 17.6791 1.78618 
211 1 7.09216 19.4547 1.79577 
566 2 5.33717 15.9618 3.57167 
606 2 5.30068 19.5035 3.56395 
609 1 7.10248 17.7267 3.56264 
175 3 10.7008 15.8881 1.75736 
210 2 8.92406 19.457 0.0288964 
212 3 8.92417 17.6751 1.78864 
213 3 10.6768 17.7192 0.0424086 
215 1 10.664 19.4868 1.80982 
570 2 8.88947 15.9428 3.52472 
610 1 8.87362 19.4982 3.57306 
613 1 10.6649 17.7332 3.56093 
179 1 14.194 15.9743 1.7869 
214 3 12.4157 19.4711 0.00801949 
216 2 12.4069 17.7243 1.76509 
217 1 14.2164 17.7493 0.0149267 
219 1 14.2241 19.5095 1.7951 
574 1 12.4417 15.9695 3.58278 
614 1 12.4601 19.4959 3.55716 
617 3 14.2353 17.663 3.58453 
182 3 19.5297 15.934 0.0304109 
183 2 17.7373 15.9277 1.74085 
220 2 15.9948 17.7118 1.78734 
223 1 17.7593 19.5333 1.77055 
224 3 19.5423 17.7203 1.78876 
578 3 16.0353 16.0036 3.54893 
582 1 19.5106 15.9844 3.5588 
618 1 15.9722 19.4983 3.55571 
621 2 17.725 17.7222 3.5388 
622 1 19.5211 19.5512 3.5376 
187 2 21.3297 15.9511 1.80218 
225 3 21.3402 17.699 0.0736799 
227 3 21.3186 19.5259 1.77388 
228 2 23.0209 17.809 1.77096 
586 2 23.0546 15.958 3.60175 
625 2 21.3183 17.7746 3.50236 
626 2 23.0879 19.5534 3.5163 
190 1 26.6303 15.9856 0.00704832 
191 1 24.8456 16.0155 1.79085 
229 1 24.8758 17.7752 0.0113266 
230 1 26.6296 19.5622 0.00165678 
231 3 24.8553 19.5247 1.79154 
232 2 26.7128 17.7761 1.77442 
590 1 26.6462 15.9977 3.56911 
629 1 24.8615 17.765 3.54921 
630 1 26.6331 19.5236 3.57954 
195 3 28.4117 16.0273 1.81191 
235 2 28.4247 19.4938 1.78999 
236 3 30.1469 17.7885 1.81205 
594 2 30.1693 16.0185 3.55684 
633 3 28.4298 17.8033 3.62765 
634 3 30.1344 19.5721 3.57471 
198 1 33.7533 15.9827 0.00735869 
199 3 31.9849 16.0191 1.76289 
239 1 31.9713 19.5288 1.77603 
240 2 33.793 17.7751 1.8162 
598 3 33.7257 16.0172 3.557 
637 3 31.9385 17.7588 3.55657 
638 3 33.7562 19.4895 3.57711 
242 1 1.78138 23.0491 0.0139088 
244 2 1.74687 21.2727 1.79697 
245 3 3.5031 21.2492 0.0518938 
247 3 3.56887 23.0258 1.84901 
642 1 1.7458 23.1066 3.56783 
645 2 3.56188 21.322 3.51319 
246 3 5.24668 23.0085 0.0188564 
248 2 5.32626 21.2663 1.74134 
251 3 7.04019 23.0047 1.73907 
646 2 5.32123 23.0756 3.50943 
649 1 7.08461 21.2713 3.56182 
250 3 8.90064 22.9561 0.0629946 
252 2 8.88578 21.269 1.78069 
253 1 10.6955 21.2435 0.0326659 
255 3 10.6615 23.0579 1.75301 
650 3 8.85386 23.0486 3.45225 
653 3 10.6402 21.2772 3.55212 
254 2 12.4051 23.0517 0.0504593 
256 1 12.4715 21.2818 1.80576 
257 1 14.2269 21.298 0.0291204 
259 3 14.2426 23.0558 1.76916 
654 1 12.4368 23.0701 3.53866 
657 3 14.2913 21.3641 3.54082 
258 2 16.0112 23.1132 0.0290731 
260 2 15.9804 21.3356 1.82325 
261 2 17.7705 21.3126 0.0287466 
263 2 17.7522 23.0754 1.79405 
264 3 19.5352 21.3287 1.72156 
658 1 15.9864 23.1225 3.55573 
661 3 17.7246 21.3392 3.51351 
662 1 19.5304 23.0695 3.56634 
265 2 21.3181 21.2867 0.00960043 
267 2 21.3213 23.0659 1.79233 
268 3 23.0604 21.2753 1.7659 
308 2 23.0807 23.0697 0.0161597 
665 1 21.3049 21.2885 3.56576 
708 1 23.0889 23.0629 3.56019 
271 2 24.869 23.0635 1.79789 
272 3 26.6683 21.2758 1.82609 
669 1 24.8657 21.2952 3.56021 
670 2 26.6452 23.0814 3.55896 
273 2 28.3943 21.3012 0.0235422 
274 3 30.1737 23.0535 0.063937 
275 1 28.3969 23.0709 1.78379 
276 2 30.1812 21.3051 1.80438 
673 2 28.4 21.2863 3.5477 
674 3 30.1485 23.0533 3.5236 
243 1 35.4853 23.0693 1.78871 
278 2 33.6943 23.078 0.0729312 
279 3 31.92 23.0741 1.78292 
280 3 33.7611 21.2724 1.80416 
641 1 35.4963 21.3174 3.59702 
677 1 31.9625 21.3062 3.55655 
678 3 33.6895 23.1096 3.54852 
284 3 1.72208 24.8695 1.78076 
285 1 3.53376 24.8075 0.0327538 
287 1 3.52903 26.647 1.78122 
682 1 1.74575 26.6479 3.55007 
685 1 3.52029 24.869 3.55975 
288 3 5.33168 24.8674 1.77322 
289 3 7.04062 24.8832 0.00765097 
291 3 7.05171 26.6917 1.73639 
686 2 5.3317 26.6314 3.54575 
689 1 7.10407 24.8774 3.5317 
290 3 8.9441 26.748 0.0710165 
292 3 8.84741 24.8061 1.7044 
295 2 10.5956 26.6417 1.75369 
690 3 8.89288 26.691 3.44121 
693 1 10.639 24.8485 3.51515 
296 1 12.4607 24.8678 1.77811 
297 1 14.2021 24.8493 0.00823122 
299 3 14.2406 26.6975 1.76899 
694 1 12.4097 26.6553 3.54188 
697 1 14.2042 24.8759 3.53914 
300 2 15.9631 24.8748 1.75988 
301 3 17.7235 24.82 0.0976177 
302 3 19.5272 26.6003 0.0131511 
303 2 17.7646 26.662 1.76132 
304 2 19.5628 24.8344 1.74692 
698 3 16.0324 26.6372 3.52289 
701 3 17.7714 24.8668 3.42473 
702 1 19.5525 26.6093 3.53089 
305 3 21.4143 24.8418 0.0528763 
307 2 21.3403 26.5943 1.74552 
666 3 21.289 24.8604 3.54016 
705 2 23.0772 26.5762 3.5377 
706 3 23.138 24.7882 1.74311 
309 2 24.8275 24.837 0.030294 
311 1 24.8563 26.6162 1.78128 
312 2 26.6258 24.8549 1.78745 
709 3 24.869 24.843 3.56338 
710 2 26.6257 26.5797 3.5436 
313 1 28.3935 24.8489 0.00088256 
314 1 30.1626 26.5975 0.018121 
315 3 28.3897 26.6244 1.85163 
316 2 30.1764 24.8416 1.79903 
713 3 28.4023 24.8757 3.5837 
714 2 30.1751 26.6035 3.53905 
281 3 35.5019 24.8614 0.0129615 
283 2 35.4902 26.6084 1.71137 
318 3 33.6934 26.6338 0.01275 
319 3 31.987 26.6458 1.77348 
320 1 33.7165 24.8493 1.78068 
681 3 35.4709 24.8802 3.51523 
717 1 31.9324 24.8581 3.57068 
718 2 33.742 26.6135 3.51098 
322 1 1.74823 30.21 0.00473633 
324 1 1.75637 28.422 1.77673 
327 3 3.467 30.2473 1.80643 
722 2 1.76294 30.1765 3.54944 
725 2 3.50168 28.4305 3.56638 
328 1 5.27661 28.4378 1.7824 
331 2 7.08359 30.1971 1.78367 
726 2 5.28184 30.192 3.56693 
729 1 7.07461 28.4217 3.55191 
330 2 8.88163 30.1786 0.0111309 
332 3 8.88655 28.5032 1.77256 
335 2 10.6652 30.1986 1.76814 
730 2 8.8883 30.1713 3.52892 
733 2 10.611 28.4306 3.51254 
334 3 12.4101 30.1963 0.0230211 
336 1 12.4309 28.4068 1.76161 
339 2 14.2255 30.1948 1.76209 
734 2 12.4495 30.201 3.54865 
737 1 14.2148 28.4252 3.53676 
340 3 16.0146 28.4495 1.72784 
342 2 19.5626 30.1722 -0.000640624 
343 3 17.8031 30.1682 1.78307 
344 2 19.5769 28.3929 1.75494 
738 3 15.978 30.2437 3.55236 
741 2 17.7841 28.4304 3.5305 
742 3 19.5914 30.1417 3.49631 
347 3 21.3128 30.2025 1.6685 
348 1 23.0843 28.385 1.73792 
745 3 21.3102 28.321 3.52426 
746 1 23.0496 30.1346 3.52153 
351 2 24.8316 30.1867 1.71704 
352 1 26.6241 28.4082 1.76291 
749 1 24.8518 28.4025 3.54543 
750 2 26.6373 30.2505 3.55133 
355 1 28.4091 30.16 1.76577 
356 1 30.1894 28.4001 1.78167 
753 2 28.4134 28.3721 3.53288 
754 3 30.2063 30.2156 3.53694 
323 2 35.4977 30.1874 1.76741 
359 3 31.9787 30.1563 1.73992 
360 2 33.7105 28.3922 1.74855 
721 1 35.4783 28.4232 3.54226 
757 1 31.9628 28.4117 3.55197 
758 2 33.6957 30.1967 3.5194 
4 1 1.76246 35.4894 1.78981 
362 3 1.77547 33.7491 0.0336535 
364 2 1.78335 31.9536 1.76922 
367 2 3.5715 33.7378 1.75376 
405 1 3.51393 35.4929 3.57963 
762 1 1.75347 33.6983 3.56066 
765 1 3.51611 31.9488 3.5603 
8 3 5.28888 35.4745 1.78626 
366 3 5.31933 33.7256 0.0115022 
368 1 5.29136 31.9308 1.79896 
369 3 7.08728 31.9212 0.0839692 
371 3 7.01874 33.6864 1.85665 
766 2 5.27838 33.7285 3.57904 
769 2 7.07495 31.9788 3.57175 
370 1 8.82714 33.75 0.018461 
372 1 8.88763 31.9482 1.79818 
373 1 10.6457 31.9942 0.0145187 
375 3 10.6754 33.7738 1.77083 
770 1 8.9095 33.7133 3.55268 
773 3 10.696 31.8768 3.59289 
374 2 12.4694 33.7665 0.00698688 
376 1 12.4207 31.987 1.78849 
379 1 14.2253 33.7529 1.75937 
774 3 12.4511 33.7318 3.57513 
777 2 14.2202 31.97 3.5393 
20 2 15.9889 35.502 1.73388 
380 3 15.9991 31.9627 1.75427 
383 3 17.803 33.7313 1.72867 
384 2 19.562 31.9777 1.76821 
421 1 17.7893 35.4896 3.53202 
778 1 16.0059 33.7397 3.53573 
781 1 17.7972 31.9794 3.5517 
782 3 19.5682 33.7695 3.55624 
387 1 21.3249 33.7727 1.73985 
388 2 23.0864 31.9521 1.75283 
785 3 21.3305 31.9587 3.51632 
786 1 23.0816 33.7709 3.51982 
391 2 24.8351 33.7237 1.73419 
392 1 26.6083 31.9559 1.77019 
789 3 24.7995 31.9363 3.55883 
790 3 26.6032 33.7047 3.45732 
36 2 30.1943 35.4977 1.77298 
394 3 30.1159 33.7847 0.0272977 
395 2 28.4157 33.6964 1.7501 
396 2 30.1824 31.9002 1.73745 
433 1 28.403 35.4769 3.51833 
793 3 28.4343 31.9482 3.51449 
794 1 30.1683 33.6919 3.51429 
37 1 31.9574 35.4958 0.00824976 
363 2 35.4799 33.7287 1.79579 
398 1 33.7245 33.7511 0.00495433 
399 1 31.9609 33.704 1.7544 
400 1 33.7384 31.9564 1.7768 
401 1 35.4848 35.4864 3.58509 
437 1 31.9433 35.4895 3.53408 
761 1 35.4788 31.9286 3.55721 
797 2 31.9227 31.8909 3.49246 
798 3 33.6882 33.6827 3.54886 
403 3 0.0235127 1.77051 5.3601 
407 1 3.51692 1.76796 5.34735 
444 2 1.77791 3.53794 5.37251 
802 3 1.76792 1.81437 7.192 
845 3 3.51848 3.5418 7.13347 
411 1 7.08974 1.77354 5.33682 
448 1 5.31302 3.55163 5.34985 
806 2 5.30713 1.78099 7.12095 
849 3 7.11724 3.552 7.12755 
415 3 10.6047 1.78202 5.29519 
452 2 8.86365 3.54159 5.29261 
810 1 8.86901 1.76565 7.09247 
813 1 10.6624 0.00628294 7.08984 
853 2 10.6351 3.57258 7.06939 
419 3 14.3077 1.80674 5.32347 
456 1 12.4453 3.54211 5.30809 
814 1 12.4366 1.78196 7.0755 
817 1 14.2188 0.00248263 7.09819 
857 2 14.2215 3.54018 7.05207 
420 2 15.9854 0.031538 5.32069 
423 3 17.7441 1.7328 5.2977 
424 2 19.5712 0.0417724 5.3028 
460 3 15.999 3.57112 5.2958 
464 3 19.5481 3.53407 5.32921 
818 3 16.0103 1.77807 7.13172 
821 2 17.7784 0.0476493 7.09253 
822 3 19.5426 1.72282 7.03684 
861 1 17.7692 3.55941 7.08807 
427 2 21.3517 1.80142 5.30805 
428 3 23.1163 0.107791 5.32628 
468 3 23.1289 3.53686 5.28431 
826 2 23.1235 1.77514 7.05301 
865 1 21.3373 3.57084 7.07672 
431 3 24.8963 1.84392 5.30258 
432 1 26.631 0.00974012 5.30013 
472 3 26.6999 3.64938 5.29374 
829 3 24.8895 0.0497773 7.08683 
830 3 26.6818 1.84714 7.11083 
869 1 24.8806 3.57386 7.08379 
435 1 28.4088 1.7628 5.3015 
476 3 30.1351 3.59119 5.32559 
834 2 30.173 1.74275 7.03047 
873 2 28.4291 3.54859 7.07301 
439 3 31.8796 1.78742 5.31357 
440 3 33.6691 0.0109156 5.27626 
480 2 33.6861 3.53187 5.31531 
838 1 33.7194 1.76681 7.10416 
841 1 35.4847 3.56922 7.10936 
877 1 31.9235 3.55769 7.09766 
443 2 0.00182953 5.37171 5.38205 
447 1 3.53916 5.32784 5.35778 
484 2 1.79071 7.1233 5.34478 
842 2 1.77091 5.29062 7.15166 
885 1 3.555 7.08254 7.11945 
451 1 7.09554 5.3203 5.3496 
488 3 5.28588 7.13072 5.30105 
846 3 5.32263 5.29368 7.10808 
889 1 7.08612 7.07646 7.12278 
455 2 10.6507 5.32803 5.33521 
492 1 8.88258 7.11201 5.3568 
850 2 8.90553 5.32043 7.11929 
893 1 10.6586 7.12292 7.11307 
459 1 14.1924 5.33245 5.30975 
496 1 12.4408 7.09263 5.33602 
854 3 12.3903 5.30716 7.08304 
897 2 14.168 7.07819 7.16474 
463 3 17.7343 5.35991 5.34477 
500 1 15.9454 7.12718 5.35135 
504 1 19.5308 7.12161 5.32027 
858 1 15.9457 5.34062 7.10856 
862 3 19.5177 5.36446 7.09053 
901 2 17.7655 7.09582 7.11938 
467 1 21.3269 5.33996 5.30978 
508 3 23.0877 7.1548 5.27495 
866 1 23.0861 5.36146 7.11122 
905 1 21.3274 7.12557 7.1007 
471 1 24.855 5.34828 5.30952 
512 2 26.6279 7.13367 5.3139 
870 2 26.6513 5.32966 7.07104 
909 1 24.862 7.12313 7.09625 
475 2 28.4069 5.32363 5.32012 
516 3 30.0956 7.11122 5.34704 
874 2 30.1853 5.36907 7.07797 
913 2 28.4178 7.10194 7.0953 
479 1 31.9504 5.36402 5.31823 
520 3 33.8775 7.10741 5.30093 
878 1 33.6978 5.33464 7.10307 
881 2 35.4827 7.07747 7.17766 
917 3 31.898 7.08893 7.11252 
483 2 0.0164727 8.85614 5.3896 
487 3 3.43007 8.83239 5.30118 
524 2 1.80525 10.6339 5.36975 
882 1 1.76988 8.86237 7.14257 
921 2 0.0223368 10.6521 7.12547 
925 3 3.57557 10.6206 7.11309 
491 1 7.11376 8.86757 5.33437 
528 3 5.33237 10.6272 5.25856 
886 1 5.30824 8.86704 7.08053 
929 1 7.09515 10.6266 7.11917 
495 3 10.688 8.82535 5.20999 
532 1 8.90025 10.6037 5.35244 
890 3 8.89869 8.8298 7.21061 
933 3 10.6436 10.5652 7.16678 
499 2 14.1572 8.85758 5.3344 
536 1 12.4144 10.6377 5.35106 
894 1 12.4033 8.87383 7.11927 
937 1 14.1905 10.6329 7.11247 
503 1 17.7313 8.88419 5.34561 
540 1 15.95 10.6486 5.38001 
544 2 19.5149 10.6608 5.32352 
898 2 15.9785 8.83848 7.16108 
902 3 19.4898 8.89228 7.05949 
941 1 17.7506 10.637 7.12935 
507 2 21.3053 8.88846 5.31515 
548 2 23.0962 10.6316 5.35591 
906 2 23.1001 8.8764 7.09824 
945 1 21.2924 10.6356 7.11558 
511 3 24.8368 8.90508 5.33587 
552 1 26.637 10.6389 5.33326 
910 3 26.6597 8.85101 7.05735 
949 2 24.8634 10.6479 7.12058 
515 2 28.4147 8.89574 5.32087 
556 3 30.2162 10.5987 5.3464 
914 1 30.1791 8.86346 7.12859 
953 2 28.4103 10.6366 7.10552 
519 2 31.9783 8.82022 5.36395 
560 1 33.7442 10.6211 5.36002 
918 1 33.723 8.83686 7.15574 
957 2 31.9539 10.6175 7.12926 
523 3 0.0125786 12.3826 5.3913 
527 1 3.56217 12.4033 5.35351 
564 2 1.78243 14.1652 5.36887 
922 3 1.77346 12.4175 7.09991 
965 3 3.57784 14.2055 7.12341 
531 1 7.12479 12.3952 5.32782 
568 1 5.3666 14.1688 5.33012 
926 1 5.331 12.3776 7.13974 
969 1 7.13346 14.1796 7.11635 
535 1 10.6557 12.4127 5.36648 
572 3 8.8787 14.2265 5.32107 
930 1 8.90881 12.4196 7.11483 
973 3 10.6349 14.2533 7.1072 
539 1 14.1985 12.4386 5.37783 
576 1 12.4185 14.1905 5.36686 
934 3 12.3336 12.4178 7.17585 
977 1 14.1831 14.1861 7.13616 
543 1 17.7346 12.4368 5.36265 
580 3 16.0065 14.2614 5.40414 
584 3 19.4561 14.24 5.34682 
938 2 16.005 12.4809 7.1518 
942 1 19.5353 12.4334 7.10662 
981 3 17.7357 14.2321 7.16587 
547 3 21.3389 12.3245 5.29516 
588 3 23.0897 14.152 5.35393 
946 1 23.0759 12.4225 7.12886 
985 3 21.2856 14.211 7.00903 
551 2 24.8715 12.4322 5.37568 
592 3 26.6779 14.1685 5.3615 
950 3 26.6495 12.3953 7.12327 
989 3 24.9082 14.1822 7.14004 
555 3 28.4559 12.4221 5.35618 
596 3 30.1787 14.2167 5.37055 
954 2 30.1622 12.4214 7.09556 
993 2 28.3697 14.1767 7.12889 
559 1 31.9688 12.3991 5.34179 
600 1 33.7256 14.1928 5.34689 
958 2 33.7397 12.4098 7.11332 
961 1 35.4858 14.1844 7.14591 
997 3 31.941 14.1461 7.17188 
567 3 3.59117 15.9297 5.38532 
603 2 0.0019201 19.5074 5.37087 
604 1 1.82079 17.7383 5.37106 
607 3 3.61143 19.6153 5.20251 
962 1 1.77961 15.9487 7.13886 
1002 3 1.89696 19.55 7.10448 
1005 3 3.57013 17.7462 7.13453 
571 1 7.12487 15.9754 5.35251 
608 3 5.32472 17.763 5.32739 
611 2 7.06136 19.4978 5.36268 
966 1 5.36877 15.9583 7.11583 
1006 3 5.31305 19.546 7.12928 
1009 3 7.136 17.7736 7.17852 
575 1 10.6458 15.9845 5.34858 
612 1 8.87117 17.7507 5.34184 
615 2 10.6641 19.5178 5.34502 
970 2 8.89183 15.9902 7.12406 
1010 2 8.883 19.5068 7.12039 
1013 3 10.6008 17.7919 7.09865 
579 3 14.2011 16.0135 5.4149 
616 2 12.4371 17.7318 5.36173 
619 1 14.2013 19.5187 5.33039 
974 2 12.3936 15.9754 7.11547 
1014 1 12.41 19.5171 7.10997 
1017 2 14.2179 17.7495 7.11179 
583 2 17.7299 15.9802 5.36049 
620 2 15.9692 17.7298 5.35069 
623 1 17.7512 19.5452 5.30723 
624 1 19.5325 17.7611 5.3131 
978 2 15.9876 15.9828 7.12082 
982 1 19.5557 15.9965 7.10627 
1018 3 15.9684 19.5354 7.10373 
1021 3 17.7343 17.7388 7.0865 
1022 1 19.526 19.5206 7.09679 
587 3 21.3349 16.0442 5.28692 
627 1 21.3243 19.5184 5.33036 
628 1 23.08 17.7695 5.33936 
986 1 23.0624 15.978 7.09708 
1025 2 21.2827 17.7801 7.15 
1026 2 23.0161 19.6055 7.14883 
591 1 24.8539 15.9692 5.35268 
631 1 24.8354 19.5341 5.35515 
632 2 26.6376 17.7462 5.345 
990 2 26.5764 15.8693 7.13182 
1029 1 24.8582 17.7511 7.12331 
1030 1 26.6185 19.5439 7.11857 
595 1 28.3834 15.9863 5.36394 
635 2 28.3961 19.5342 5.34842 
636 1 30.1701 17.7761 5.38038 
994 1 30.1543 15.9725 7.17159 
1033 1 28.3604 17.775 7.1324 
1034 2 30.1825 19.5517 7.16421 
563 3 35.493 15.9868 5.38126 
599 3 31.9178 15.9638 5.35251 
639 2 31.9445 19.5261 5.31252 
640 1 33.6995 17.7485 5.38887 
998 2 33.6432 15.9693 7.13342 
1001 3 35.4987 17.7398 7.1024 
1037 3 31.9227 17.8098 7.15466 
1038 3 33.6133 19.5609 7.131 
644 3 1.81117 21.3 5.31865 
647 2 3.54091 23.0467 5.32277 
1042 1 1.7377 23.0864 7.11454 
1045 2 3.55844 21.2961 7.12432 
648 2 5.28412 21.2686 5.347 
651 1 7.08995 23.0818 5.31345 
1046 3 5.27523 23.0626 7.08963 
1049 1 7.1049 21.3142 7.08116 
652 1 8.88806 21.3058 5.2927 
655 3 10.6839 23.0642 5.29787 
1050 1 8.90028 23.1049 7.04841 
1053 1 10.652 21.3132 7.07595 
656 1 12.4425 21.2979 5.29627 
659 2 14.204 23.0824 5.34163 
1054 3 12.4477 23.0891 7.06575 
1057 2 14.2091 21.3121 7.12244 
660 3 15.9616 21.3166 5.30289 
663 3 17.7563 23.0937 5.34286 
664 3 19.5613 21.3196 5.37175 
1058 1 15.9739 23.0859 7.08987 
1061 1 17.7633 21.3123 7.08928 
1062 2 19.549 23.0741 7.10267 
667 1 21.32 23.0997 5.33506 
668 3 23.052 21.2956 5.37015 
1065 3 21.2804 21.292 7.11078 
1066 3 23.0364 23.0589 7.10549 
671 1 24.8609 23.0661 5.35481 
672 2 26.632 21.314 5.34734 
1069 1 24.841 21.3244 7.11304 
1070 3 26.7089 23.0673 7.13567 
675 1 28.4124 23.0515 5.33574 
676 1 30.1779 21.3071 5.35071 
1073 2 28.4048 21.2973 7.14172 
1074 3 30.1914 23.0207 7.13641 
643 1 35.4811 23.1126 5.36092 
679 2 31.9211 23.1043 5.31582 
680 1 33.7244 21.3157 5.34192 
1041 3 35.5011 21.2386 7.09767 
1077 2 31.9472 21.2918 7.13005 
1078 1 33.7215 23.0882 7.1264 
684 1 1.73749 24.8841 5.34238 
687 2 3.52444 26.6812 5.35933 
1082 3 1.74527 26.6813 7.09772 
1085 1 3.52538 24.8596 7.08551 
688 1 5.29611 24.8436 5.31388 
691 3 7.08475 26.6226 5.35491 
1086 3 5.36132 26.6226 7.09277 
1089 2 7.05491 24.9065 7.04551 
692 1 8.88423 24.8544 5.26991 
695 1 10.6371 26.6518 5.29483 
1090 2 8.79555 26.6478 7.03004 
1093 1 10.658 24.8704 7.0721 
696 2 12.41 24.835 5.32644 
699 1 14.2095 26.6549 5.30476 
1094 3 12.4538 26.6369 7.04646 
1097 3 14.1393 24.8548 7.06466 
700 1 16.0048 24.8893 5.32529 
703 3 17.7765 26.7023 5.26305 
704 2 19.4657 24.8353 5.34898 
1098 3 16.0117 26.6571 7.11178 
1101 3 17.8354 24.8138 7.17514 
1144 2 19.4504 26.5923 7.09938 
707 1 21.3121 26.5942 5.3387 
711 2 23.136 24.8457 5.29905 
1102 1 21.3048 24.8523 7.12548 
1106 2 23.1214 26.5982 7.08608 
712 2 26.6469 24.8391 5.35885 
1108 1 24.857 24.8276 7.12214 
1109 3 24.8825 26.5831 5.33979 
1110 2 26.6665 26.5847 7.13461 
715 2 28.4023 26.5727 5.29554 
716 3 30.1455 24.8759 5.34327 
1113 2 28.4305 24.83 7.09879 
1114 2 30.1415 26.6149 7.12073 
683 1 35.4924 26.6463 5.31873 
719 1 31.9585 26.6384 5.34771 
720 1 33.7276 24.8718 5.33777 
1081 3 35.4876 24.9228 7.18697 
1117 1 31.9471 24.8463 7.12135 
1118 2 33.7963 26.5769 7.15702 
723 2 0.0315367 30.1555 5.31675 
724 3 1.77154 28.4612 5.29072 
727 1 3.53459 30.1875 5.32426 
1121 2 0.0670148 28.367 7.0999 
1122 1 1.76728 30.1556 7.09205 
1125 2 3.53494 28.392 7.09877 
728 1 5.30802 28.3982 5.33529 
731 1 7.09198 30.183 5.32586 
1126 2 5.34601 30.1784 7.07171 
1129 3 7.07206 28.3344 7.11115 
732 1 8.8691 28.4036 5.295 
735 2 10.6833 30.2033 5.27966 
1130 1 8.87159 30.1647 7.08018 
1133 1 10.6423 28.4033 7.0788 
736 2 12.4399 28.4399 5.31275 
739 3 14.1809 30.1961 5.31542 
1134 1 12.4139 30.1861 7.0923 
1137 2 14.2247 28.4066 7.07361 
740 3 16.0112 28.4413 5.31998 
743 2 17.7851 30.1889 5.30378 
744 2 19.5465 28.4179 5.31229 
1138 1 15.9944 30.2035 7.09816 
1141 1 17.7839 28.4245 7.11385 
1142 3 19.5426 30.2073 7.09977 
747 3 21.3149 30.139 5.34984 
748 1 21.3097 28.3744 7.10929 
1145 1 23.0861 28.3654 5.33433 
1146 2 23.0931 30.1916 7.10251 
751 2 24.8506 30.1736 5.33678 
752 1 26.6238 28.3767 5.28674 
1149 2 24.8713 28.3795 7.08088 
1150 1 26.6816 30.1198 7.07271 
755 1 28.4223 30.1748 5.29289 
756 2 30.1556 28.3778 5.32316 
1153 3 28.4443 28.2637 6.94845 
1154 1 30.173 30.1485 7.10359 
759 1 31.962 30.1762 5.32407 
760 1 33.7428 28.4064 5.33891 
1157 1 31.9637 28.3997 7.10955 
1158 1 33.7349 30.1668 7.09034 
404 3 1.77937 35.4825 5.3633 
764 2 1.77744 31.9313 5.33006 
767 3 3.51056 33.6863 5.34737 
805 1 3.53975 35.4966 7.12345 
1162 1 1.76635 33.6913 7.10177 
1165 2 3.57408 31.9612 7.05394 
408 3 5.30385 35.4782 5.33726 
768 3 5.30989 31.9634 5.3228 
771 3 7.09181 33.6921 5.25754 
809 1 7.08912 35.4711 7.10751 
1166 1 5.32991 33.7246 7.10315 
1169 3 7.0792 31.968 7.08871 
412 3 8.84494 35.4805 5.31605 
772 1 8.87857 31.9379 5.32685 
775 1 10.6627 33.7347 5.32564 
1170 3 8.89676 33.7096 7.10289 
1173 2 10.6422 31.9738 7.10292 
416 3 12.4818 35.4971 5.31216 
776 2 12.4403 31.9631 5.2971 
779 1 14.2274 33.7243 5.33993 
1174 2 12.4122 33.7071 7.09335 
1177 2 14.2107 31.9368 7.06593 
780 3 15.9955 31.9623 5.34265 
783 2 17.7784 33.7465 5.33094 
784 1 19.5716 31.9573 5.31638 
1178 2 16.0234 33.7277 7.07128 
1181 3 17.763 32.0017 7.0613 
1182 1 19.5498 33.7377 7.09096 
787 1 21.3505 33.7443 5.3169 
788 2 23.1053 31.9399 5.27813 
825 1 21.3413 35.4959 7.08492 
1185 1 21.3347 31.9521 7.08963 
1186 3 23.1422 33.6948 7.11315 
791 1 24.8452 33.7648 5.28704 
792 3 26.5842 31.937 5.30212 
1189 3 24.8259 31.8539 7.03837 
1190 3 26.5652 33.6799 7.1108 
436 3 30.1874 35.4374 5.31514 
795 3 28.3885 33.7049 5.31788 
796 1 30.1939 31.9479 5.32817 
833 3 28.3917 35.4781 7.0904 
1193 3 28.4153 31.9832 7.12944 
1194 1 30.1958 33.7313 7.11175 
763 1 35.4919 33.709 5.32907 
799 2 31.9579 33.7266 5.2939 
800 1 33.7123 31.9456 5.31648 
801 1 35.4783 35.483 7.10047 
837 1 31.9583 35.501 7.10718 
1161 2 35.495 31.9498 7.11152 
1197 2 31.9158 31.9238 7.17097 
1198 1 33.7008 33.7058 7.08579 
803 3 0.00754527 1.78017 8.89732 
807 2 3.53961 1.78893 8.87998 
844 2 1.75901 3.57437 8.92031 
1202 3 1.79942 1.77298 10.5816 
1205 2 3.52446 0.00522147 10.6323 
1241 2 0.00162542 3.50775 10.6573 
1245 2 3.54305 3.54775 10.6401 
808 3 5.32878 0.0259033 8.91149 
811 2 7.09532 1.74501 8.87527 
848 1 5.34848 3.55081 8.864 
1206 2 5.32189 1.75985 10.6434 
1249 2 7.119 3.51524 10.6324 
815 1 10.6553 1.78411 8.85272 
852 1 8.88671 3.55866 8.85883 
1210 1 8.88899 1.76852 10.6193 
1253 2 10.6613 3.5657 10.614 
819 1 14.2078 1.79559 8.86113 
856 2 12.4356 3.63241 8.80897 
1214 1 12.4037 1.76935 10.6263 
1257 2 14.2068 3.54548 10.654 
820 2 16.0218 0.00661016 8.85568 
823 3 17.7691 1.76467 8.83356 
824 2 19.5356 0.00949365 8.87791 
860 2 15.9842 3.55336 8.83155 
864 2 19.564 3.55283 8.80136 
1218 1 15.9986 1.75691 10.6052 
1222 1 19.5646 1.78543 10.6111 
1261 1 17.7684 3.55619 10.5949 
827 1 21.3171 1.76904 8.84555 
828 1 23.0875 0.00885597 8.86699 
868 3 23.0575 3.51944 8.86378 
1226 3 23.0733 1.79126 10.6426 
1265 2 21.347 3.54077 10.5904 
831 1 24.8533 1.79692 8.87224 
832 1 26.6438 0.0340271 8.89382 
872 2 26.6582 3.55549 8.88829 
1229 2 24.8766 0.0389085 10.6625 
1230 2 26.6531 1.80021 10.6872 
1269 1 24.8448 3.56606 10.6438 
835 1 28.4502 1.78207 8.88255 
876 1 30.2142 3.57312 8.87998 
1234 1 30.1936 1.78419 10.6807 
1273 3 28.3774 3.56363 10.6494 
839 1 31.9853 1.77137 8.89844 
880 1 33.7177 3.56239 8.90724 
1237 1 31.9893 0.0105663 10.6831 
1238 3 33.7945 1.76771 10.669 
1277 1 31.9662 3.58651 10.6926 
847 1 3.56463 5.32478 8.89912 
884 1 1.77511 7.07098 8.91184 
1242 3 1.74452 5.28766 10.6739 
1285 1 3.54581 7.08888 10.6789 
851 1 7.11808 5.32246 8.87573 
888 1 5.33392 7.11755 8.89721 
1246 1 5.34131 5.3484 10.6522 
1289 2 7.10678 7.13212 10.6632 
855 3 10.6768 5.27805 8.80832 
892 2 8.90586 7.11993 8.87148 
1250 1 8.88955 5.31413 10.629 
1293 1 10.6519 7.07257 10.6494 
859 3 14.1668 5.3021 8.84919 
896 2 12.4008 7.06488 8.8674 
1254 1 12.4209 5.29957 10.6458 