ITEM: TIMESTEP
1000
ITEM: NUMBER OF ATOMS
3999
ITEM: BOX BOUNDS pp pp pp
0.0000000000000000e+00 3.5503000000000000e+01
0.0000000000000000e+00 3.5503000000000000e+01
0.0000000000000000e+00 3.5503000000000000e+01
ITEM: ATOMS id type x y z 
7 3 3.52049 1.7371 1.75705 
44 1 1.77437 3.56158 1.79374 
45 1 3.52958 3.58061 0.0121711 
402 1 1.75507 1.79096 3.57931 
445 3 3.52584 3.59167 3.55492 
6 3 5.27478 1.78068 0.0428391 
9 3 7.03995 0.0675096 0.0133682 
11 2 7.09026 1.79053 1.78066 
48 1 5.29667 3.57119 1.80883 
49 1 7.10189 3.56369 0.0102244 
406 1 5.29767 1.78697 3.56084 
409 1 7.08159 0.00980903 3.55318 
449 3 7.12672 3.5759 3.54741 
10 3 8.91959 1.79202 0.00617671 
12 1 8.86163 0.0006479 1.77908 
13 3 10.6914 0.0206807 0.0228091 
15 2 10.6312 1.76839 1.7749 
52 1 8.88873 3.58544 1.79194 
410 3 8.89697 1.77023 3.55445 
413 2 10.6755 0.000686481 3.5732 
453 1 10.6674 3.57636 3.54495 
14 1 12.4294 1.80809 0.00742901 
16 1 12.4465 0.0171382 1.78768 
19 2 14.2373 1.78402 1.80118 
56 1 12.442 3.57714 1.76498 
57 2 14.223 3.52728 0.00115027 
414 1 12.4493 1.77863 3.55616 
417 3 14.2414 0.00135406 3.55918 
457 3 14.258 3.58827 3.47853 
23 2 17.7603 1.79975 1.77819 
24 1 19.5665 0.029169 1.74872 
60 2 15.9941 3.57949 1.80909 
61 3 17.7191 3.50123 0.0224701 
64 3 19.4971 3.56233 1.74126 
418 3 16.0403 1.75596 3.48102 
422 1 19.5608 1.7993 3.52813 
461 2 17.7434 3.57831 3.56746 
27 1 21.3153 1.80682 1.72227 
28 1 23.083 0.036447 1.73642 
68 1 23.0935 3.59431 1.74631 
425 3 21.3402 0.0238931 3.59138 
426 1 23.1048 1.81737 3.50461 
465 1 21.3209 3.58245 3.51742 
30 3 26.6478 1.75048 0.00990032 
31 2 24.9102 1.81585 1.72671 
32 1 26.6242 0.00229081 1.73832 
72 2 26.6558 3.579 1.73537 
429 1 24.8583 0.0412689 3.50566 
430 1 26.6415 1.81977 3.52539 
469 2 24.8776 3.56526 3.57836 
35 1 28.4057 1.76699 1.75076 
76 1 30.1828 3.56041 1.76601 
434 3 30.163 1.74471 3.53015 
473 2 28.4501 3.56422 3.54623 
1 1 35.4909 0.00801374 0.00869587 
3 2 35.4718 1.77413 1.77869 
38 3 33.7257 1.77118 0.0506053 
39 2 31.9647 1.81261 1.80841 
40 3 33.727 0.0448993 1.84104 
80 1 33.7349 3.56567 1.78703 
438 3 33.7387 1.80537 3.60692 
441 1 35.5009 3.56934 3.59106 
477 3 31.9242 3.56355 3.58201 
42 2 1.77456 5.35917 0.014265 
43 1 0.0269673 5.36233 1.7912 
47 3 3.49979 5.42117 1.8287 
84 3 1.78603 7.17064 1.83694 
442 1 1.76724 5.3381 3.58529 
481 2 0.0462383 7.12918 3.57489 
485 2 3.5679 7.09769 3.58526 
46 1 5.31191 5.32367 0.0047052 
51 3 7.083 5.32547 1.80855 
88 1 5.33153 7.09683 1.77885 
89 3 7.12238 7.16525 0.00565689 
446 2 5.32157 5.32834 3.57343 
489 1 7.10991 7.09691 3.56059 
50 1 8.88371 5.33406 0.0189641 
55 3 10.7063 5.33974 1.8014 
92 1 8.89396 7.07196 1.78104 
450 3 8.91681 5.34775 3.60784 
493 2 10.6527 7.11433 3.55871 
59 2 14.2172 5.33871 1.78446 
96 1 12.4485 7.10268 1.76346 
454 2 12.4328 5.35081 3.5338 
497 2 14.2041 7.11344 3.53812 
63 1 17.7424 5.37124 1.75857 
100 1 15.9768 7.15127 1.75292 
104 1 19.5019 7.13017 1.78361 
458 3 15.9356 5.38939 3.51796 
462 3 19.5114 5.29371 3.54973 
501 3 17.7464 7.12351 3.57192 
67 1 21.3007 5.32983 1.74501 
108 1 23.083 7.10221 1.77668 
466 2 23.0853 5.35358 3.57301 
505 2 21.2646 7.11116 3.55397 
70 3 26.6992 5.33676 0.0374267 
71 1 24.8567 5.3397 1.76342 
112 1 26.6129 7.11373 1.76836 
470 2 26.6416 5.31689 3.55219 
509 2 24.8671 7.12945 3.56955 
75 2 28.4196 5.32552 1.77375 
113 3 28.4317 7.09295 0.00832109 
116 1 30.1911 7.12072 1.78088 
474 3 30.1448 5.38487 3.54908 
513 1 28.3738 7.1274 3.53898 
78 1 33.755 5.35212 0.016734 
79 3 31.9445 5.34372 1.77632 
120 1 33.7594 7.11855 1.78737 
478 1 33.7334 5.34327 3.568 
517 2 31.947 7.1183 3.58005 
82 1 1.78442 8.89305 0.0108343 
83 2 0.0184016 8.89082 1.76324 
87 2 3.55423 8.83706 1.81392 
124 1 1.78796 10.6545 1.78917 
125 1 3.56588 10.6236 0.0111072 
482 2 1.80322 8.87138 3.58888 
521 1 0.0253897 10.6417 3.5797 
525 1 3.56227 10.6426 3.56003 
91 2 7.12834 8.8544 1.79576 
128 1 5.34214 10.6271 1.79102 
486 3 5.31196 8.86609 3.56121 
529 3 7.12848 10.56 3.53602 
90 3 8.89834 8.86988 0.0302167 
95 2 10.6511 8.87156 1.80464 
132 1 8.90415 10.672 1.77547 
133 3 10.6371 10.652 0.00493974 
490 3 8.92199 8.86862 3.51969 
533 1 10.6687 10.6453 3.55113 
94 1 12.4143 8.89796 0.0149785 
99 2 14.1859 8.88958 1.79192 
136 1 12.4088 10.6693 1.79602 
137 1 14.1805 10.6774 0.0177554 
494 3 12.4637 8.79458 3.55562 
537 1 14.1901 10.6289 3.57724 
98 1 15.951 8.90695 0.00142238 
103 3 17.7555 8.93401 1.81118 
140 2 15.9869 10.6659 1.78727 
144 2 19.5194 10.6527 1.76016 
498 1 15.9628 8.88308 3.56485 
502 3 19.542 8.9251 3.57997 
541 2 17.7564 10.6686 3.5572 
107 2 21.286 8.90556 1.7918 
145 3 21.2865 10.6544 0.000693003 
148 2 23.0928 10.6515 1.77932 
506 1 23.0779 8.87157 3.54259 
545 2 21.2952 10.6605 3.55541 
111 3 24.8391 8.89437 1.80264 
152 1 26.617 10.6427 1.75434 
510 3 26.6334 8.89247 3.55135 
549 2 24.8666 10.6588 3.57603 
114 3 30.1269 8.89847 0.0251483 
115 2 28.4062 8.89938 1.76931 
156 2 30.1934 10.649 1.78481 
514 2 30.2057 8.88321 3.55629 
553 3 28.442 10.6304 3.54004 
119 3 31.9775 8.8482 1.73791 
157 1 31.9721 10.6484 0.0222798 
160 2 33.7416 10.6369 1.78294 
518 1 33.762 8.86583 3.56019 
557 3 31.9493 10.559 3.57159 
123 1 0.0156769 12.4095 1.79849 
127 1 3.56628 12.4275 1.79108 
161 1 0.0350291 14.1815 0.00771915 
164 1 1.80874 14.1824 1.78388 
165 1 3.56392 14.1781 0.0256572 
522 3 1.76409 12.4063 3.61927 
561 1 0.00849896 14.1841 3.58182 
565 1 3.58849 14.1778 3.56667 
126 1 5.34736 12.4293 0.0171798 
131 1 7.11024 12.4401 1.79194 
168 3 5.35642 14.2519 1.85242 
169 1 7.09581 14.1852 0.000882956 
526 2 5.37691 12.3687 3.57962 
569 3 7.14288 14.2428 3.5565 
130 2 8.90472 12.4317 0.0164469 
135 3 10.6666 12.5394 1.76391 
172 3 8.92844 14.209 1.74534 
173 2 10.6598 14.2221 0.00954145 
530 1 8.87903 12.4316 3.56176 
573 2 10.6247 14.2133 3.57252 
134 2 12.4003 12.4328 0.00716965 
139 1 14.1883 12.437 1.81086 
176 2 12.405 14.2029 1.79662 
534 1 12.4396 12.4433 3.58072 
577 3 14.239 14.2789 3.6372 
142 2 19.5112 12.4239 0.00627318 
143 3 17.7518 12.419 1.78798 
180 1 15.9305 14.1823 1.77478 
184 2 19.5441 14.202 1.78211 
538 1 15.9599 12.4479 3.5903 
542 3 19.4851 12.3982 3.54398 
581 3 17.744 14.2272 3.53824 
146 3 23.0657 12.3969 0.0145322 
147 3 21.3031 12.4128 1.82437 
185 3 21.329 14.2217 0.0376101 
188 2 23.0826 14.1722 1.79425 
546 3 23.1162 12.3802 3.5988 
585 1 21.2991 14.1926 3.6062 
151 1 24.8732 12.4227 1.77893 
189 3 24.8214 14.2108 0.0117908 
192 1 26.6369 14.2088 1.79651 
550 3 26.6493 12.413 3.61317 
589 1 24.873 14.2035 3.57784 
155 1 28.3837 12.4252 1.77891 
193 1 28.3868 14.2023 0.00129496 
196 1 30.1717 14.2313 1.77105 
554 3 30.1994 12.4116 3.53386 
593 2 28.4392 14.1937 3.60056 
158 2 33.7217 12.4052 0.0413012 
159 3 31.9662 12.4481 1.81416 
197 2 31.9504 14.2174 0.00331133 
200 2 33.7195 14.192 1.82334 
558 3 33.7174 12.3739 3.55503 
597 3 31.941 14.2524 3.54301 
163 1 0.0407364 15.9869 1.78927 
167 3 3.59086 16.0145 1.76748 
202 3 1.80137 19.5024 0.0505714 
203 3 0.0445936 19.5003 1.8397 
204 3 1.85393 17.7743 1.87356 
207 2 3.52617 19.4859 1.79835 
562 1 1.80224 15.9297 3.58274 
601 3 0.0336732 17.7525 3.65931 
602 2 1.78746 19.5208 3.5947 
605 2 3.5623 17.7176 3.60315 
166 2 5.28817 15.951 0.0103369 
171 1 7.10454 15.9841 1.75379 
206 1 5.28297 19.4793 0.0124534 
208 2 5.27512 17.6792 1.78617 
211 1 7.09216 19.4547 1.79575 
566 2 5.33716 15.9618 3.57165 
606 2 5.30067 19.5035 3.56393 
609 1 7.10248 17.7267 3.56261 
175 3 10.7008 15.8881 1.75735 
210 2 8.92406 19.457 0.0288797 
212 3 8.92418 17.6751 1.78863 
213 3 10.6768 17.7192 0.0423931 
215 1 10.664 19.4868 1.8098 
570 2 8.88948 15.9428 3.52471 
610 1 8.87363 19.4982 3.57303 
613 1 10.6649 17.7332 3.56091 
179 1 14.194 15.9743 1.7869 
214 3 12.4157 19.4711 0.00799156 
216 2 12.4069 17.7243 1.76507 
217 1 14.2164 17.7493 0.0149111 
219 1 14.2241 19.5095 1.79508 
574 1 12.4417 15.9695 3.58277 
614 1 12.4601 19.4959 3.55714 
617 3 14.2353 17.663 3.58452 
182 3 19.5297 15.9341 0.030399 
183 2 17.7373 15.9277 1.74084 
220 2 15.9949 17.7119 1.78733 
223 1 17.7593 19.5334 1.77053 
224 3 19.5423 17.7203 1.78874 
578 3 16.0353 16.0036 3.54894 
582 1 19.5106 15.9844 3.55879 
618 1 15.9722 19.4983 3.55569 
621 2 17.725 17.7223 3.53878 
622 1 19.5211 19.5512 3.53759 
187 2 21.3297 15.9511 1.80217 
225 3 21.3402 17.6991 0.073661 
227 3 21.3185 19.5259 1.77387 
228 2 23.0209 17.809 1.77095 
586 2 23.0546 15.9581 3.60175 
625 2 21.3183 17.7746 3.50235 
626 2 23.0879 19.5534 3.5163 
190 1 26.6303 15.9856 0.00703765 
191 1 24.8456 16.0155 1.79084 
229 1 24.8758 17.7752 0.0113107 
230 1 26.6296 19.5622 0.00164127 
231 3 24.8553 19.5247 1.79153 
232 2 26.7128 17.7761 1.77441 
590 1 26.6462 15.9977 3.5691 
629 1 24.8615 17.765 3.54921 
630 1 26.6331 19.5236 3.57954 
195 3 28.4117 16.0273 1.81191 
235 2 28.4247 19.4938 1.78998 
236 3 30.1468 17.7885 1.81204 
594 2 30.1693 16.0185 3.55683 
633 3 28.4298 17.8033 3.62764 
634 3 30.1344 19.5722 3.5747 
198 1 33.7533 15.9828 0.0073509 
199 3 31.9849 16.0191 1.76288 
239 1 31.9713 19.5288 1.77601 
240 2 33.793 17.7751 1.81619 
598 3 33.7257 16.0172 3.55698 
637 3 31.9385 17.7588 3.55655 
638 3 33.7562 19.4895 3.57709 
242 1 1.78139 23.0491 0.0138953 
244 2 1.74687 21.2727 1.79695 
245 3 3.50311 21.2493 0.0518793 
247 3 3.56888 23.0258 1.849 
642 1 1.7458 23.1066 3.56781 
645 2 3.56188 21.322 3.51318 
246 3 5.2467 23.0085 0.0188328 
248 2 5.32626 21.2663 1.74132 
251 3 7.0402 23.0047 1.73906 
646 2 5.32123 23.0756 3.50941 
649 1 7.08462 21.2713 3.56179 
250 3 8.90065 22.9561 0.062968 
252 2 8.88578 21.269 1.78067 
253 1 10.6955 21.2435 0.032647 
255 3 10.6615 23.0579 1.75301 
650 3 8.85387 23.0486 3.45224 
653 3 10.6402 21.2772 3.55211 
254 2 12.4051 23.0517 0.0504409 
256 1 12.4715 21.2818 1.80574 
257 1 14.2269 21.298 0.0290816 
259 3 14.2426 23.0558 1.76916 
654 1 12.4368 23.0701 3.53864 
657 3 14.2913 21.3642 3.54081 
258 2 16.0113 23.1132 0.0290203 
260 2 15.9804 21.3356 1.82323 
261 2 17.7705 21.3127 0.0286983 
263 2 17.7522 23.0754 1.79402 
264 3 19.5352 21.3287 1.72153 
658 1 15.9864 23.1226 3.55572 
661 3 17.7246 21.3392 3.51351 
662 1 19.5304 23.0695 3.56633 
265 2 21.3181 21.2867 0.0095531 
267 2 21.3213 23.0659 1.7923 
268 3 23.0603 21.2753 1.76588 
308 2 23.0806 23.0698 0.0161235 
665 1 21.3049 21.2885 3.56575 
708 1 23.0889 23.0629 3.56019 
271 2 24.8689 23.0635 1.79788 
272 3 26.6683 21.2758 1.82607 
669 1 24.8657 21.2952 3.56021 
670 2 26.6452 23.0814 3.55895 
273 2 28.3943 21.3013 0.0235271 
274 3 30.1737 23.0535 0.0639147 
275 1 28.3969 23.0709 1.78377 
276 2 30.1812 21.3051 1.80437 
673 2 28.4 21.2863 3.54769 
674 3 30.1484 23.0533 3.52359 
243 1 35.4853 23.0693 1.7887 
278 2 33.6943 23.078 0.0729167 
279 3 31.9199 23.0741 1.7829 
280 3 33.7611 21.2724 1.80415 
641 1 35.4962 21.3174 3.597 
677 1 31.9625 21.3062 3.55653 
678 3 33.6895 23.1096 3.5485 
284 3 1.72208 24.8695 1.78074 
285 1 3.53377 24.8075 0.0327323 
287 1 3.52904 26.647 1.7812 
682 1 1.74574 26.6479 3.55005 
685 1 3.52029 24.869 3.55972 
288 3 5.33169 24.8674 1.7732 
289 3 7.04064 24.8832 0.00762315 
291 3 7.05172 26.6917 1.73638 
686 2 5.3317 26.6314 3.54573 
689 1 7.10407 24.8774 3.53169 
290 3 8.94411 26.748 0.0710065 
292 3 8.84741 24.8061 1.70439 
295 2 10.5956 26.6417 1.75368 
690 3 8.89289 26.691 3.44119 
693 1 10.639 24.8485 3.51514 
296 1 12.4607 24.8677 1.7781 
297 1 14.2021 24.8493 0.00820889 
299 3 14.2406 26.6975 1.76897 
694 1 12.4097 26.6553 3.54186 
697 1 14.2042 24.8759 3.53912 
300 2 15.9631 24.8748 1.75984 
301 3 17.7234 24.82 0.0975492 
302 3 19.5272 26.6003 0.0131043 
303 2 17.7646 26.662 1.76128 
304 2 19.5628 24.8344 1.74688 
698 3 16.0324 26.6372 3.52287 
701 3 17.7714 24.8668 3.42474 
702 1 19.5525 26.6093 3.53087 
305 3 21.4143 24.8419 0.0528045 
307 2 21.3403 26.5943 1.74548 
666 3 21.289 24.8604 3.54016 
705 2 23.0772 26.5762 3.53769 
706 3 23.1379 24.7882 1.74308 
309 2 24.8275 24.837 0.0302564 
311 1 24.8563 26.6162 1.78127 
312 2 26.6258 24.8549 1.78743 
709 3 24.869 24.843 3.56337 
710 2 26.6257 26.5797 3.54359 
313 1 28.3934 24.8489 0.000855301 
314 1 30.1625 26.5975 0.0181009 
315 3 28.3897 26.6244 1.85162 
316 2 30.1764 24.8416 1.79901 
713 3 28.4023 24.8757 3.58369 
714 2 30.1751 26.6035 3.53904 
281 3 35.5019 24.8614 0.0129507 
283 2 35.4902 26.6084 1.71136 
318 3 33.6934 26.6338 0.0127409 
319 3 31.987 26.6458 1.77346 
320 1 33.7165 24.8493 1.78066 
681 3 35.4709 24.8802 3.51521 
717 1 31.9324 24.8581 3.57066 
718 2 33.7419 26.6135 3.51096 
322 1 1.74824 30.21 0.00472487 
324 1 1.75638 28.422 1.77671 
327 3 3.46701 30.2473 1.8064 
722 2 1.76293 30.1765 3.54942 
725 2 3.50168 28.4305 3.56635 
328 1 5.27662 28.4378 1.78237 
331 2 7.0836 30.1971 1.78364 
726 2 5.28185 30.192 3.5669 
729 1 7.07462 28.4217 3.55188 
330 2 8.88164 30.1785 0.0111026 
332 3 8.88656 28.5032 1.77255 
335 2 10.6652 30.1986 1.76812 
730 2 8.88831 30.1713 3.5289 
733 2 10.611 28.4306 3.51252 
334 3 12.4101 30.1963 0.0229872 
336 1 12.4309 28.4068 1.76159 
339 2 14.2255 30.1948 1.76206 
734 2 12.4495 30.201 3.54863 
737 1 14.2148 28.4252 3.53674 
340 3 16.0146 28.4495 1.72781 
342 2 19.5626 30.1722 -0.000697127 
343 3 17.8031 30.1681 1.78305 
344 2 19.5769 28.3929 1.7549 
738 3 15.978 30.2437 3.55234 
741 2 17.7841 28.4304 3.53049 
742 3 19.5914 30.1416 3.49629 
347 3 21.3128 30.2024 1.66847 
348 1 23.0843 28.385 1.73788 
745 3 21.3102 28.3209 3.52425 
746 1 23.0496 30.1345 3.52152 
351 2 24.8316 30.1867 1.71702 
352 1 26.6241 28.4082 1.7629 
749 1 24.8518 28.4025 3.54543 
750 2 26.6373 30.2504 3.55132 
355 1 28.409 30.16 1.76575 
356 1 30.1893 28.4001 1.78166 
753 2 28.4134 28.3721 3.53287 
754 3 30.2062 30.2156 3.53693 
323 2 35.4977 30.1874 1.76739 
359 3 31.9787 30.1563 1.73991 
360 2 33.7105 28.3922 1.74853 
721 1 35.4782 28.4232 3.54224 
757 1 31.9627 28.4117 3.55196 
758 2 33.6957 30.1967 3.51938 
4 1 1.76246 35.4894 1.7898 
362 3 1.77546 33.7491 0.03365 
364 2 1.78335 31.9536 1.7692 
367 2 3.5715 33.7377 1.75375 
405 1 3.51393 35.4929 3.57962 
762 1 1.75346 33.6983 3.56065 
765 1 3.51611 31.9488 3.56028 
8 3 5.28888 35.4745 1.78624 
366 3 5.31934 33.7256 0.0114858 
368 1 5.29136 31.9308 1.79894 
369 3 7.08729 31.9212 0.083946 
371 3 7.01875 33.6864 1.85663 
766 2 5.27838 33.7285 3.57902 
769 2 7.07496 31.9788 3.57172 
370 1 8.82715 33.7499 0.0184432 
372 1 8.88764 31.9482 1.79815 
373 1 10.6457 31.9941 0.0144894 
375 3 10.6754 33.7738 1.77082 
770 1 8.9095 33.7132 3.55266 
773 3 10.696 31.8768 3.59288 
374 2 12.4694 33.7665 0.00696386 
376 1 12.4207 31.987 1.78847 
379 1 14.2253 33.7529 1.75934 
774 3 12.4511 33.7318 3.57512 
777 2 14.2202 31.97 3.53928 
20 2 15.9889 35.502 1.73387 
380 3 15.9991 31.9627 1.75425 
383 3 17.803 33.7313 1.72866 
384 2 19.562 31.9777 1.76818 
421 1 17.7893 35.4896 3.532 
778 1 16.0059 33.7397 3.53571 
781 1 17.7972 31.9794 3.5517 
782 3 19.5682 33.7695 3.55625 
387 1 21.3249 33.7727 1.73984 
388 2 23.0864 31.9521 1.75281 
785 3 21.3305 31.9587 3.51632 
786 1 23.0816 33.7709 3.51981 
391 2 24.8351 33.7236 1.73417 
392 1 26.6082 31.9558 1.77018 
789 3 24.7994 31.9362 3.55882 
790 3 26.6032 33.7047 3.45731 
36 2 30.1942 35.4977 1.77297 
394 3 30.1158 33.7847 0.0272805 
395 2 28.4157 33.6964 1.75009 
396 2 30.1824 31.9002 1.73743 
433 1 28.403 35.4769 3.51832 
793 3 28.4343 31.9482 3.51448 
794 1 30.1683 33.6919 3.51428 
37 1 31.9574 35.4958 0.00824374 
363 2 35.4799 33.7287 1.79578 
398 1 33.7245 33.7511 0.00494864 
399 1 31.9609 33.704 1.75439 
400 1 33.7383 31.9564 1.77679 
401 1 35.4848 35.4864 3.58508 
437 1 31.9433 35.4895 3.53407 
761 1 35.4788 31.9286 3.55719 
797 2 31.9227 31.8909 3.49245 
798 3 33.6882 33.6827 3.54884 
403 3 0.0235011 1.7705 5.36009 
407 1 3.5169 1.76796 5.34732 
444 2 1.77789 3.53794 5.3725 
802 3 1.76789 1.81438 7.19197 
845 3 3.51845 3.54182 7.13343 
411 1 7.08972 1.77354 5.33679 
448 1 5.313 3.55164 5.34982 
806 2 5.3071 1.781 7.1209 
849 3 7.11723 3.55202 7.1275 
415 3 10.6047 1.78202 5.29515 
452 2 8.86364 3.54159 5.29258 
810 1 8.86898 1.76567 7.0924 
813 1 10.6624 0.00630233 7.08977 
853 2 10.6351 3.57261 7.06932 
419 3 14.3077 1.80674 5.32343 
456 1 12.4453 3.54212 5.30805 
814 1 12.4366 1.782 7.07541 
817 1 14.2188 0.00250223 7.09811 
857 2 14.2215 3.54022 7.05201 
420 2 15.9855 0.0315211 5.32065 
423 3 17.7441 1.73279 5.2977 
424 2 19.5712 0.0417431 5.30278 
460 3 15.999 3.57113 5.29577 
464 3 19.5481 3.53408 5.32917 
818 3 16.0103 1.77812 7.13163 
821 2 17.7784 0.0476326 7.09248 
822 3 19.5426 1.72284 7.03679 
861 1 17.7692 3.55945 7.08802 
427 2 21.3517 1.80141 5.30803 
428 3 23.1163 0.107763 5.32628 
468 3 23.1289 3.53686 5.28429 
826 2 23.1236 1.77513 7.05298 
865 1 21.3373 3.57085 7.07669 
431 3 24.8963 1.8439 5.30257 
432 1 26.631 0.00972831 5.30012 
472 3 26.6999 3.64937 5.29373 
829 3 24.8895 0.0497612 7.08682 
830 3 26.6818 1.84713 7.11082 
869 1 24.8806 3.57386 7.08377 
435 1 28.4088 1.76279 5.30149 
476 3 30.1351 3.59118 5.32559 
834 2 30.173 1.74274 7.03046 
873 2 28.4291 3.54858 7.07301 
439 3 31.8796 1.78742 5.31356 
440 3 33.6691 0.0109115 5.27624 
480 2 33.686 3.53186 5.3153 
838 1 33.7194 1.76681 7.10414 
841 1 35.4847 3.56922 7.10934 
877 1 31.9235 3.55769 7.09765 
443 2 0.00181684 5.37171 5.38203 
447 1 3.53915 5.32785 5.35776 
484 2 1.79069 7.12329 5.34476 
842 2 1.77089 5.29062 7.15163 
885 1 3.55498 7.08254 7.11942 
451 1 7.09553 5.32031 5.34957 
488 3 5.28587 7.13072 5.30102 
846 3 5.32261 5.2937 7.10804 
889 1 7.08611 7.07646 7.12274 
455 2 10.6507 5.32803 5.33517 
492 1 8.88258 7.11201 5.35676 
850 2 8.90552 5.32045 7.11924 
893 1 10.6586 7.12292 7.11303 
459 1 14.1924 5.33246 5.30971 
496 1 12.4409 7.09263 5.33599 
854 3 12.3903 5.30717 7.083 
897 2 14.168 7.0782 7.16471 
463 3 17.7343 5.35993 5.34474 
500 1 15.9454 7.12718 5.35132 
504 1 19.5309 7.12161 5.32025 
858 1 15.9457 5.34065 7.10851 
862 3 19.5177 5.36448 7.0905 
901 2 17.7655 7.09583 7.11935 
467 1 21.327 5.33997 5.30976 
508 3 23.0878 7.1548 5.27494 
866 1 23.0861 5.36147 7.11121 
905 1 21.3274 7.12558 7.10068 
471 1 24.855 5.34828 5.30951 
512 2 26.6279 7.13366 5.31389 
870 2 26.6513 5.32966 7.07104 
909 1 24.862 7.12314 7.09624 
475 2 28.4069 5.32363 5.32012 
516 3 30.0956 7.11121 5.34703 
874 2 30.1853 5.36907 7.07796 
913 2 28.4178 7.10194 7.0953 
479 1 31.9503 5.36402 5.31822 
520 3 33.8775 7.10741 5.30092 
878 1 33.6978 5.33464 7.10306 
881 2 35.4827 7.07747 7.17764 
917 3 31.898 7.08892 7.11251 
483 2 0.0164549 8.85613 5.38958 
487 3 3.43005 8.83238 5.30115 
524 2 1.80523 10.6339 5.36973 
882 1 1.76985 8.86235 7.14255 
921 2 0.022314 10.6521 7.12544 
925 3 3.57553 10.6205 7.11305 
491 1 7.11375 8.86756 5.33433 
528 3 5.33235 10.6272 5.25851 
886 1 5.30821 8.86701 7.08049 
929 1 7.09512 10.6266 7.1191 
495 3 10.688 8.82534 5.20996 
532 1 8.90025 10.6036 5.35239 
890 3 8.89868 8.82978 7.21056 
933 3 10.6436 10.5652 7.16672 
499 2 14.1572 8.85757 5.33437 
536 1 12.4144 10.6377 5.35103 
894 1 12.4033 8.87381 7.11922 
937 1 14.1905 10.6328 7.11242 
503 1 17.7313 8.88419 5.34559 
540 1 15.95 10.6486 5.37998 
544 2 19.5149 10.6608 5.3235 
898 2 15.9785 8.83847 7.16104 
902 3 19.4898 8.89228 7.05946 
941 1 17.7507 10.637 7.12931 
507 2 21.3053 8.88847 5.31513 
548 2 23.0962 10.6316 5.3559 
906 2 23.1001 8.87641 7.09823 
945 1 21.2924 10.6356 7.11557 
511 3 24.8368 8.90509 5.33586 
552 1 26.637 10.6389 5.33325 
910 3 26.6597 8.85101 7.05734 
949 2 24.8634 10.6479 7.12057 
515 2 28.4147 8.89574 5.32086 
556 3 30.2162 10.5987 5.34639 
914 1 30.1791 8.86346 7.12858 
953 2 28.4103 10.6366 7.10551 
519 2 31.9783 8.82022 5.36394 
560 1 33.7442 10.6211 5.36001 
918 1 33.723 8.83685 7.15573 
957 2 31.9539 10.6175 7.12925 
523 3 0.0125509 12.3826 5.39127 
527 1 3.56215 12.4033 5.35347 
564 2 1.7824 14.1652 5.36883 
922 3 1.77341 12.4175 7.09987 
965 3 3.57779 14.2055 7.12334 
531 1 7.12478 12.3952 5.32778 
568 1 5.36658 14.1688 5.33007 
926 1 5.33096 12.3776 7.13967 
969 1 7.13341 14.1796 7.11625 
535 1 10.6557 12.4127 5.36645 
572 3 8.87871 14.2265 5.32106 
930 1 8.90879 12.4196 7.11476 
973 3 10.6349 14.2532 7.10721 
539 1 14.1985 12.4385 5.37781 
576 1 12.4185 14.1906 5.36684 
934 3 12.3336 12.4177 7.17577 
977 1 14.1831 14.1861 7.1361 
543 1 17.7346 12.4368 5.36263 
580 3 16.0065 14.2614 5.40416 
584 3 19.4561 14.24 5.34681 
938 2 16.0051 12.4808 7.15174 
942 1 19.5354 12.4334 7.10659 
981 3 17.7358 14.2321 7.16583 
547 3 21.339 12.3246 5.29515 
588 3 23.0897 14.152 5.35393 
946 1 23.0759 12.4225 7.12885 
985 3 21.2856 14.211 7.00903 
551 2 24.8715 12.4322 5.37568 
592 3 26.6779 14.1685 5.36149 
950 3 26.6495 12.3953 7.12327 
989 3 24.9082 14.1822 7.14004 
555 3 28.4559 12.4221 5.35618 
596 3 30.1787 14.2167 5.37054 
954 2 30.1622 12.4214 7.09555 
993 2 28.3697 14.1767 7.12888 
559 1 31.9687 12.3991 5.34178 
600 1 33.7256 14.1928 5.34687 
958 2 33.7396 12.4098 7.11331 
961 1 35.4857 14.1844 7.14587 
997 3 31.941 14.1461 7.17186 
567 3 3.59113 15.9297 5.38528 
603 2 0.0018876 19.5074 5.37083 
604 1 1.82075 17.7382 5.37102 
607 3 3.61141 19.6153 5.2025 
962 1 1.77956 15.9487 7.1388 
1002 3 1.89686 19.55 7.1044 
1005 3 3.57006 17.7462 7.13447 
571 1 7.12486 15.9754 5.35246 
608 3 5.3247 17.763 5.32735 
611 2 7.06136 19.4978 5.36263 
966 1 5.36871 15.9582 7.11572 
1006 3 5.31303 19.546 7.12924 
1009 3 7.13597 17.7735 7.17842 
575 1 10.6459 15.9845 5.34857 
612 1 8.87118 17.7507 5.34181 
615 2 10.6641 19.5178 5.345 
970 2 8.89183 15.9901 7.12395 
1010 2 8.88302 19.5068 7.12035 
1013 3 10.6008 17.792 7.09866 
579 3 14.2011 16.0135 5.41491 
616 2 12.4371 17.7318 5.36173 
619 1 14.2013 19.5187 5.33038 
974 2 12.3937 15.9754 7.11543 
1014 1 12.4101 19.5171 7.11 
1017 2 14.218 17.7496 7.11178 
583 2 17.7299 15.9802 5.36046 
620 2 15.9692 17.7299 5.35067 
623 1 17.7512 19.5452 5.30722 
624 1 19.5325 17.7612 5.3131 
978 2 15.9876 15.9828 7.12076 
982 1 19.5558 15.9965 7.10626 
1018 3 15.9684 19.5354 7.10368 
1021 3 17.7344 17.7389 7.08655 
1022 1 19.526 19.5206 7.09682 
587 3 21.3349 16.0443 5.28692 
627 1 21.3243 19.5185 5.33036 
628 1 23.08 17.7696 5.33937 
986 1 23.0624 15.9781 7.09709 
1025 2 21.2827 17.7801 7.15002 
1026 2 23.016 19.6056 7.14883 
591 1 24.8539 15.9692 5.35268 
631 1 24.8354 19.5341 5.35515 
632 2 26.6376 17.7462 5.345 
990 2 26.5764 15.8693 7.13182 
1029 1 24.8582 17.7511 7.12331 
1030 1 26.6185 19.5439 7.11857 
595 1 28.3833 15.9863 5.36393 
635 2 28.396 19.5342 5.34842 
636 1 30.1701 17.7761 5.38037 
994 1 30.1542 15.9726 7.17158 
1033 1 28.3604 17.775 7.1324 
1034 2 30.1825 19.5517 7.1642 
563 3 35.493 15.9868 5.38122 
599 3 31.9178 15.9638 5.3525 
639 2 31.9445 19.5262 5.3125 
640 1 33.6995 17.7485 5.38884 
998 2 33.6431 15.9693 7.1334 
1001 3 35.4986 17.7398 7.10235 
1037 3 31.9227 17.8098 7.15464 
1038 3 33.6132 19.5609 7.13096 
644 3 1.81114 21.3 5.31861 
647 2 3.5409 23.0467 5.32274 
1042 1 1.73765 23.0864 7.11448 
1045 2 3.55838 21.2961 7.12423 
648 2 5.28411 21.2686 5.34696 
651 1 7.08994 23.0818 5.31342 
1046 3 5.27522 23.0627 7.08962 
1049 1 7.1049 21.3142 7.08108 
652 1 8.88806 21.3058 5.29268 
655 3 10.6839 23.0642 5.29784 
1050 1 8.90029 23.1049 7.04835 
1053 1 10.6521 21.3132 7.07592 
656 1 12.4425 21.2979 5.29627 
659 2 14.204 23.0824 5.34161 
1054 3 12.4477 23.0891 7.06576 
1057 2 14.2091 21.3121 7.12243 
660 3 15.9615 21.3166 5.30293 
663 3 17.7563 23.0938 5.34283 
664 3 19.5613 21.3196 5.37176 
1058 1 15.9739 23.0859 7.08984 
1061 1 17.7634 21.3124 7.08924 
1062 2 19.5489 23.0742 7.10278 
667 1 21.32 23.0997 5.33508 
668 3 23.052 21.2957 5.37017 
1065 3 21.2804 21.292 7.11085 
1066 3 23.0363 23.0589 7.10553 
671 1 24.8608 23.0661 5.35482 
672 2 26.632 21.314 5.34734 
1069 1 24.841 21.3245 7.11306 
1070 3 26.7088 23.0674 7.13568 
675 1 28.4124 23.0515 5.33574 
676 1 30.1778 21.3071 5.3507 
1073 2 28.4047 21.2973 7.14172 
1074 3 30.1914 23.0207 7.1364 
643 1 35.4811 23.1126 5.36089 
679 2 31.9211 23.1043 5.31581 
680 1 33.7243 21.3157 5.34189 
1041 3 35.5011 21.2386 7.09762 
1077 2 31.9472 21.2918 7.13003 
1078 1 33.7214 23.0882 7.12637 
684 1 1.73747 24.8841 5.34234 
687 2 3.52444 26.6812 5.3593 
1082 3 1.74524 26.6814 7.09766 
1085 1 3.52536 24.8596 7.08545 
688 1 5.29611 24.8436 5.31385 
691 3 7.08475 26.6226 5.35488 
1086 3 5.3613 26.6227 7.09271 
1089 2 7.05491 24.9065 7.04545 
692 1 8.88424 24.8544 5.26987 
695 1 10.6371 26.6518 5.2948 
1090 2 8.79555 26.6478 7.02996 
1093 1 10.658 24.8704 7.07206 
696 2 12.41 24.835 5.32641 
699 1 14.2095 26.6549 5.30475 
1094 3 12.4538 26.6368 7.04645 
1097 3 14.1394 24.8548 7.06464 
700 1 16.0048 24.8893 5.32528 
703 3 17.7765 26.7023 5.26306 
704 2 19.4657 24.8353 5.34899 
1098 3 16.0117 26.6571 7.1118 
1101 3 17.8354 24.8139 7.17505 
1144 2 19.4503 26.5923 7.09942 
707 1 21.3121 26.5942 5.33872 
711 2 23.136 24.8457 5.29905 
1102 1 21.3048 24.8523 7.12548 
1106 2 23.1214 26.5982 7.08612 
712 2 26.6469 24.8391 5.35885 
1108 1 24.8569 24.8276 7.12216 
1109 3 24.8824 26.5831 5.3398 
1110 2 26.6665 26.5847 7.13461 
715 2 28.4022 26.5727 5.29554 
716 3 30.1455 24.8759 5.34325 
1113 2 28.4305 24.83 7.09879 
1114 2 30.1415 26.6149 7.12072 
683 1 35.4924 26.6463 5.3187 
719 1 31.9584 26.6384 5.34769 
720 1 33.7276 24.8718 5.33774 
1081 3 35.4875 24.9228 7.18691 
1117 1 31.9471 24.8463 7.12133 
1118 2 33.7962 26.5769 7.15698 
723 2 0.0315196 30.1555 5.31672 
724 3 1.77152 28.4612 5.29069 
727 1 3.53459 30.1875 5.32422 
1121 2 0.0669805 28.367 7.09987 
1122 1 1.76725 30.1556 7.09201 
1125 2 3.53493 28.392 7.09871 
728 1 5.30803 28.3982 5.33525 
731 1 7.09199 30.183 5.32583 
1126 2 5.34601 30.1783 7.07165 
1129 3 7.07207 28.3343 7.11111 
732 1 8.8691 28.4036 5.29497 
735 2 10.6833 30.2033 5.27964 
1130 1 8.87159 30.1647 7.08015 
1133 1 10.6423 28.4033 7.07875 
736 2 12.4399 28.4399 5.31274 
739 3 14.1809 30.1961 5.3154 
1134 1 12.4139 30.1861 7.09228 
1137 2 14.2247 28.4066 7.0736 
740 3 16.0112 28.4413 5.31997 
743 2 17.7851 30.1889 5.30378 
744 2 19.5465 28.4179 5.31228 
1138 1 15.9944 30.2035 7.09816 
1141 1 17.7839 28.4245 7.11382 
1142 3 19.5425 30.2073 7.09987 
747 3 21.3149 30.1389 5.34985 
748 1 21.3097 28.3744 7.10934 
1145 1 23.0861 28.3654 5.33435 
1146 2 23.0931 30.1915 7.10253 
751 2 24.8506 30.1736 5.33678 
752 1 26.6238 28.3767 5.28674 
1149 2 24.8713 28.3795 7.0809 
1150 1 26.6816 30.1198 7.07271 
755 1 28.4223 30.1747 5.29288 
756 2 30.1556 28.3778 5.32315 
1153 3 28.4442 28.2637 6.94844 
1154 1 30.173 30.1485 7.10358 
759 1 31.962 30.1762 5.32406 
760 1 33.7428 28.4064 5.33889 
1157 1 31.9637 28.3997 7.10953 
1158 1 33.7348 30.1668 7.09032 
404 3 1.77936 35.4825 5.36328 
764 2 1.77743 31.9313 5.33004 
767 3 3.51054 33.6862 5.34734 
805 1 3.53972 35.4966 7.1234 
1162 1 1.76633 33.6913 7.10173 
1165 2 3.57405 31.9612 7.05389 
408 3 5.30384 35.4782 5.33724 
768 3 5.30989 31.9634 5.32278 
771 3 7.09181 33.6921 5.25753 
809 1 7.08909 35.4711 7.10748 
1166 1 5.32988 33.7246 7.10311 
1169 3 7.07918 31.968 7.08869 
412 3 8.84492 35.4805 5.31603 
772 1 8.87856 31.9379 5.32683 
775 1 10.6627 33.7347 5.32563 
1170 3 8.89675 33.7096 7.10292 
1173 2 10.6422 31.9738 7.10284 
416 3 12.4818 35.4971 5.31214 
776 2 12.4403 31.9631 5.29709 
779 1 14.2275 33.7242 5.33992 
1174 2 12.4123 33.7071 7.09325 
1177 2 14.2107 31.9367 7.06592 
780 3 15.9955 31.9623 5.34266 
783 2 17.7784 33.7465 5.33093 
784 1 19.5716 31.9572 5.3164 
1178 2 16.0234 33.7277 7.07124 
1181 3 17.763 32.0016 7.06138 
1182 1 19.5498 33.7376 7.09097 
787 1 21.3505 33.7443 5.3169 
788 2 23.1053 31.9398 5.27814 
825 1 21.3413 35.4959 7.0849 
1185 1 21.3346 31.952 7.08966 
1186 3 23.1422 33.6948 7.11315 
791 1 24.8452 33.7648 5.28704 
792 3 26.5842 31.937 5.30211 
1189 3 24.8259 31.8538 7.03838 
1190 3 26.5652 33.6799 7.11079 
436 3 30.1874 35.4374 5.31513 
795 3 28.3885 33.7049 5.31787 
796 1 30.1939 31.9479 5.32816 
833 3 28.3917 35.4781 7.0904 
1193 3 28.4153 31.9832 7.12943 
1194 1 30.1958 33.7312 7.11174 
763 1 35.4919 33.709 5.32905 
799 2 31.9579 33.7266 5.29389 
800 1 33.7123 31.9456 5.31646 
801 1 35.4783 35.483 7.10045 
837 1 31.9583 35.501 7.10716 
1161 2 35.495 31.9498 7.11149 
1197 2 31.9158 31.9238 7.17096 
1198 1 33.7007 33.7058 7.08578 
803 3 0.00750463 1.78018 8.89728 
807 2 3.53956 1.78897 8.87991 
844 2 1.75897 3.57439 8.92028 
1202 3 1.79934 1.77302 10.5815 
1205 2 3.52437 0.00527642 10.6322 
1241 2 0.00158889 3.50777 10.6573 
1245 2 3.54299 3.54781 10.6401 
808 3 5.32866 0.0259752 8.91136 
811 2 7.09528 1.74509 8.87517 
848 1 5.34844 3.55085 8.86395 
1206 2 5.3218 1.75996 10.6433 
1209 2 7.12327 0.000545841 10.658 
1249 2 7.11896 3.51532 10.6324 
815 1 10.6553 1.78422 8.85257 
852 1 8.88668 3.55875 8.85873 
1210 1 8.88895 1.76871 10.6191 
1253 2 10.6613 3.56583 10.6139 
819 1 14.2078 1.79569 8.86096 
856 2 12.4356 3.63247 8.80888 
1214 1 12.4037 1.76956 10.6261 
1257 2 14.2068 3.54558 10.6539 
820 2 16.0218 0.006662 8.85555 
823 3 17.7691 1.76475 8.83343 
824 2 19.5356 0.00949156 8.87785 
860 2 15.9843 3.55344 8.83147 
864 2 19.564 3.55287 8.8013 
1218 1 15.9986 1.75707 10.605 
1222 1 19.5647 1.78554 10.611 
1261 1 17.7684 3.55627 10.5948 
827 1 21.3172 1.76906 8.8455 
828 1 23.0875 0.00884298 8.86696 
868 3 23.0575 3.51946 8.86376 
1226 3 23.0733 1.7913 10.6425 
1265 2 21.3471 3.54082 10.5904 
831 1 24.8533 1.79692 8.87221 
832 1 26.6438 0.034015 8.89381 
872 2 26.6582 3.5555 8.88828 
1229 2 24.8766 0.038899 10.6624 
1230 2 26.6531 1.80021 10.6872 
1269 1 24.8448 3.56608 10.6438 
835 1 28.4502 1.78207 8.88254 
876 1 30.2142 3.57312 8.87997 
1234 1 30.1936 1.78419 10.6807 
1273 3 28.3774 3.56363 10.6494 
839 1 31.9853 1.77137 8.89844 
880 1 33.7177 3.56239 8.90722 
1237 1 31.9893 0.0105667 10.6831 
1238 3 33.7945 1.76772 10.669 
1277 1 31.9662 3.58651 10.6926 
847 1 3.5646 5.32479 8.89908 
884 1 1.77508 7.07098 8.91182 
1242 3 1.74449 5.28768 10.6739 
1285 1 3.54577 7.08888 10.6789 
851 1 7.11805 5.32249 8.87569 
888 1 5.33389 7.11755 8.89717 
1246 1 5.34128 5.34846 10.6521 
1289 2 7.10677 7.13212 10.6631 
855 3 10.6768 5.27809 8.80828 
892 2 8.90586 7.11993 8.87144 
1250 1 8.88952 5.31419 10.6289 
1293 1 10.6519 7.07258 10.6494 
859 3 14.1668 5.30215 8.84914 