ITEM: TIMESTEP
1000
ITEM: NUMBER OF ATOMS
3999
ITEM: BOX BOUNDS pp pp pp
0.0000000000000000e+00 3.5503000000000000e+01
0.0000000000000000e+00 3.5503000000000000e+01
0.0000000000000000e+00 3.5503000000000000e+01
ITEM: ATOMS id type x y z 
7 3 3.52143 1.73824 1.7569 
44 1 1.77551 3.56245 1.79335 
45 1 3.53073 3.58118 0.0113265 
402 1 1.75581 1.7923 3.57921 
445 3 3.52703 3.59276 3.55479 
6 3 5.27562 1.78132 0.0420768 
9 3 7.0407 0.068557 0.0128159 
11 2 7.09096 1.7913 1.78032 
48 1 5.29768 3.57188 1.80825 
49 1 7.1029 3.56393 0.00933605 
406 1 5.29853 1.78813 3.56092 
409 1 7.08218 0.0109181 3.55312 
449 3 7.12753 3.5768 3.54723 
10 3 8.92033 1.79249 0.00535446 
12 1 8.86208 0.00150639 1.77885 
13 3 10.6916 0.0212543 0.0224502 
15 2 10.6316 1.76907 1.77472 
52 1 8.88939 3.58602 1.79158 
410 3 8.89752 1.77122 3.55455 
413 2 10.6757 0.00154714 3.57322 
453 1 10.668 3.57707 3.54505 
14 1 12.4295 1.80843 0.00687745 
16 1 12.4465 0.0177882 1.78756 
19 2 14.2372 1.78453 1.80102 
56 1 12.4422 3.57752 1.76465 
57 2 14.2229 3.52761 0.000497904 
414 1 12.4496 1.77923 3.55639 
417 3 14.2413 0.00194456 3.55927 
457 3 14.2581 3.58871 3.47886 
23 2 17.7598 1.80038 1.77827 
24 1 19.5661 0.0300638 1.74893 
60 2 15.9937 3.57988 1.80894 
61 3 17.7183 3.50171 0.0218278 
64 3 19.4962 3.56285 1.74099 
418 3 16.0398 1.75648 3.48078 
422 1 19.56 1.79994 3.52856 
461 2 17.7428 3.57891 3.56766 
27 1 21.3146 1.80775 1.72252 
28 1 23.0827 0.037723 1.73678 
68 1 23.0925 3.59502 1.74678 
425 3 21.3395 0.0248804 3.59173 
426 1 23.1039 1.8183 3.50515 
465 1 21.3196 3.58298 3.51802 
30 3 26.6477 1.75258 0.0099567 
31 2 24.9095 1.81701 1.72714 
32 1 26.624 0.00405177 1.73854 
72 2 26.6551 3.57997 1.7356 
429 1 24.8579 0.0426556 3.50612 
430 1 26.641 1.8211 3.52578 
469 2 24.8767 3.566 3.57897 
35 1 28.4055 1.76866 1.75086 
76 1 30.1828 3.56159 1.76617 
434 3 30.1626 1.74649 3.53049 
473 2 28.4497 3.56536 3.5466 
1 1 35.4914 0.00955862 0.00819113 
3 2 35.4724 1.7756 1.77828 
38 3 33.7263 1.77275 0.0500417 
39 2 31.9649 1.81421 1.80828 
40 3 33.7273 0.046932 1.84069 
80 1 33.7354 3.56681 1.78682 
438 3 33.7392 1.80684 3.60683 
441 1 35.5017 3.57035 3.59098 
477 3 31.9245 3.56467 3.58193 
42 2 1.77573 5.35965 0.0136225 
43 1 0.0280704 5.3629 1.79093 
47 3 3.50115 5.42185 1.82822 
84 3 1.78755 7.17098 1.83659 
442 1 1.76842 5.33872 3.5853 
481 2 0.0472244 7.12922 3.57502 
485 2 3.56927 7.09788 3.5854 
46 1 5.31326 5.32395 0.00363885 
51 3 7.084 5.32603 1.80791 
88 1 5.33274 7.09697 1.77829 
89 3 7.12337 7.16577 0.00447276 
446 2 5.32285 5.32879 3.57353 
489 1 7.11109 7.09714 3.56084 
50 1 8.88443 5.3343 0.017925 
55 3 10.7067 5.34006 1.8007 
92 1 8.89462 7.07219 1.78035 
450 3 8.91755 5.34839 3.60785 
493 2 10.6531 7.11414 3.5589 
59 2 14.2171 5.33893 1.784 
96 1 12.4487 7.10265 1.76293 
454 2 12.4333 5.35104 3.53402 
497 2 14.2041 7.11341 3.5385 
63 1 17.7417 5.37149 1.7583 
100 1 15.9764 7.15137 1.75262 
104 1 19.501 7.13024 1.78341 
458 3 15.9353 5.3899 3.51833 
462 3 19.5103 5.29409 3.54994 
501 3 17.7458 7.12366 3.57252 
67 1 21.2997 5.33002 1.74508 
108 1 23.0819 7.10224 1.77692 
466 2 23.084 5.35397 3.57381 
505 2 21.2633 7.1111 3.55469 
70 3 26.6982 5.33674 0.0373751 
71 1 24.8556 5.34004 1.76384 
112 1 26.612 7.11355 1.76861 
470 2 26.6407 5.31727 3.553 
509 2 24.8662 7.1294 3.57028 
75 2 28.4191 5.32603 1.77401 
113 3 28.4314 7.09209 0.00840907 
116 1 30.1911 7.1206 1.78113 
474 3 30.1446 5.38517 3.5497 
513 1 28.3731 7.12734 3.53952 
78 1 33.7559 5.35255 0.0161946 
79 3 31.945 5.34445 1.77638 
120 1 33.7602 7.11853 1.7872 
478 1 33.734 5.34376 3.56811 
517 2 31.9473 7.11817 3.58009 
82 1 1.78566 8.89259 0.00981188 
83 2 0.0195941 8.89015 1.7629 
87 2 3.55527 8.83663 1.8135 
124 1 1.7891 10.6535 1.7887 
125 1 3.56715 10.6229 0.0100536 
482 2 1.80432 8.87101 3.58905 
521 1 0.0262254 10.6408 3.57964 
525 1 3.56333 10.6418 3.56002 
91 2 7.1293 8.85431 1.79558 
128 1 5.34315 10.6264 1.79061 
486 3 5.31319 8.8659 3.56148 
529 3 7.12967 10.5593 3.53599 
90 3 8.8991 8.86988 0.0285268 
95 2 10.6516 8.87134 1.80425 
132 1 8.90494 10.6715 1.77494 
133 3 10.6375 10.6518 0.00394449 
490 3 8.92347 8.86812 3.52028 
533 1 10.6692 10.6448 3.55135 
94 1 12.4145 8.89786 0.0140298 
99 2 14.1859 8.88943 1.79156 
136 1 12.4089 10.6689 1.79566 
137 1 14.1803 10.6771 0.01696 
494 3 12.4634 8.79427 3.55594 
537 1 14.1898 10.6284 3.5776 
98 1 15.9505 8.90669 0.000485929 
103 3 17.7546 8.934 1.81094 
140 2 15.9866 10.6652 1.78715 
144 2 19.5187 10.652 1.76025 
498 1 15.9624 8.88286 3.56543 
502 3 19.541 8.92458 3.58017 
541 2 17.756 10.6681 3.55801 
107 2 21.2852 8.90521 1.79192 
145 3 21.2857 10.6536 0.00048755 
148 2 23.092 10.6506 1.77972 
506 1 23.0768 8.87104 3.54337 
545 2 21.2943 10.6597 3.55621 
111 3 24.838 8.89362 1.80271 
152 1 26.6163 10.6413 1.75443 
510 3 26.6323 8.89192 3.55179 
549 2 24.8658 10.6577 3.57682 
114 3 30.1267 8.89747 0.0248575 
115 2 28.4058 8.89844 1.7695 
156 2 30.1935 10.6474 1.78479 
514 2 30.2056 8.88268 3.55683 
553 3 28.4409 10.629 3.54049 
119 3 31.9778 8.84721 1.73796 
157 1 31.9727 10.6467 0.0219957 
160 2 33.7424 10.6357 1.78259 
518 1 33.7627 8.86523 3.56021 
557 3 31.9499 10.5578 3.57163 
123 1 0.0164601 12.4081 1.79808 
127 1 3.56727 12.4265 1.79053 
161 1 0.0355727 14.1799 0.00733881 
164 1 1.80936 14.181 1.78345 
165 1 3.56456 14.177 0.0250632 
522 3 1.76504 12.405 3.61885 
561 1 0.00886516 14.1822 3.58154 
565 1 3.5891 14.1764 3.56649 
126 1 5.34836 12.4285 0.0163125 
131 1 7.11099 12.4393 1.79152 
168 3 5.35705 14.2508 1.85195 
169 1 7.09643 14.1844 9.88326e-05 
526 2 5.37785 12.3677 3.57955 
569 3 7.14334 14.2419 3.55622 
130 2 8.9053 12.4312 0.015525 
135 3 10.667 12.5389 1.76356 
172 3 8.92882 14.2083 1.74493 
173 2 10.6602 14.2217 0.00884208 
530 1 8.87963 12.4309 3.56166 
573 2 10.625 14.2127 3.57239 
134 2 12.4006 12.4325 0.00648703 
139 1 14.1882 12.4363 1.81077 
176 2 12.4052 14.2023 1.79636 
534 1 12.4398 12.4428 3.58084 
577 3 14.2392 14.2783 3.63697 
142 2 19.5107 12.4229 0.00610351 
143 3 17.7514 12.4177 1.788 
180 1 15.9305 14.1814 1.77469 
184 2 19.5438 14.2008 1.78248 
538 1 15.9597 12.4471 3.59044 
542 3 19.4844 12.3972 3.54457 
581 3 17.7437 14.2262 3.53826 
146 3 23.0652 12.3953 0.014667 
147 3 21.3024 12.4116 1.82456 
185 3 21.3288 14.2199 0.0379189 
188 2 23.0823 14.1706 1.79484 
546 3 23.1152 12.3789 3.59955 
585 1 21.2984 14.1913 3.60688 
151 1 24.8726 12.4212 1.77941 
189 3 24.8215 14.2086 0.0122733 
192 1 26.6369 14.2068 1.79703 
550 3 26.6488 12.4111 3.61359 
589 1 24.8727 14.2018 3.57844 
155 1 28.3837 12.4232 1.77913 
193 1 28.387 14.2001 0.00165519 
196 1 30.1718 14.2291 1.77123 
554 3 30.1989 12.4094 3.53424 
593 2 28.439 14.1916 3.60096 
158 2 33.7224 12.4035 0.0409079 
159 3 31.9663 12.4458 1.81427 
197 2 31.9507 14.2153 0.00330459 
200 2 33.7198 14.19 1.82309 
558 3 33.7178 12.3722 3.55493 
597 3 31.9409 14.2498 3.54305 
163 1 0.0407635 15.985 1.78912 
167 3 3.59112 16.0131 1.76716 
202 3 1.80077 19.5007 0.0505646 
203 3 0.0441752 19.4986 1.83987 
204 3 1.85365 17.7725 1.87342 
207 2 3.52565 19.4845 1.79818 
562 1 1.80242 15.9279 3.58245 
601 3 0.0331332 17.7504 3.65916 
602 2 1.78691 19.5193 3.59431 
605 2 3.56207 17.7161 3.6028 
166 2 5.28859 15.95 0.00970925 
171 1 7.10479 15.9832 1.75332 
206 1 5.28243 19.4779 0.012267 
208 2 5.27493 17.6779 1.78589 
211 1 7.09173 19.4535 1.79541 
566 2 5.33742 15.9606 3.57136 
606 2 5.30018 19.5022 3.56366 
609 1 7.10244 17.7255 3.56213 
175 3 10.7011 15.8872 1.75694 
210 2 8.92406 19.4562 0.0288331 
212 3 8.9243 17.6742 1.78821 
213 3 10.677 17.7186 0.0420985 
215 1 10.6641 19.4861 1.80951 
570 2 8.88973 15.9419 3.52428 
610 1 8.87338 19.4973 3.57231 
613 1 10.6651 17.7324 3.56037 
179 1 14.1942 15.9736 1.78666 
214 3 12.416 19.4706 0.00798821 
216 2 12.4071 17.7237 1.76478 
217 1 14.2167 17.7488 0.0148781 
219 1 14.2244 19.5089 1.79505 
574 1 12.4419 15.9689 3.58243 
614 1 12.4602 19.4953 3.55674 
617 3 14.2355 17.6624 3.58426 
182 3 19.5298 15.9325 0.0307704 
183 2 17.7374 15.9268 1.74087 
220 2 15.9951 17.7111 1.78731 
223 1 17.7599 19.5324 1.77071 
224 3 19.5427 17.719 1.789 
578 3 16.0355 16.003 3.54859 
582 1 19.5104 15.9833 3.55917 
618 1 15.9725 19.4977 3.55556 
621 2 17.7252 17.7214 3.53886 
622 1 19.5217 19.5502 3.5376 
187 2 21.3296 15.9496 1.80264 
225 3 21.341 17.6972 0.0742914 
227 3 21.3193 19.5244 1.77405 
228 2 23.0213 17.8071 1.77146 
586 2 23.0545 15.9564 3.6023 
625 2 21.3185 17.7733 3.5027 
626 2 23.0884 19.5521 3.5165 
190 1 26.6307 15.9833 0.00760775 
191 1 24.8458 16.0135 1.79135 
229 1 24.8766 17.7733 0.011957 
230 1 26.6304 19.5606 0.0023105 
231 3 24.856 19.523 1.79201 
232 2 26.7132 17.7742 1.77484 
590 1 26.6461 15.9958 3.56956 
629 1 24.8616 17.7633 3.54957 
630 1 26.6334 19.5219 3.57979 
195 3 28.4119 16.0251 1.81235 
235 2 28.4252 19.4921 1.79045 
236 3 30.1471 17.7864 1.81215 
594 2 30.1693 16.0163 3.55704 
633 3 28.4299 17.8012 3.62778 
634 3 30.1345 19.5702 3.57474 
198 1 33.7534 15.9808 0.00721435 
199 3 31.985 16.0169 1.76295 
239 1 31.9713 19.5272 1.77615 
240 2 33.7927 17.7732 1.81615 
598 3 33.7254 16.0145 3.55675 
637 3 31.9384 17.7569 3.55651 
638 3 33.7558 19.488 3.57715 
242 1 1.7809 23.0483 0.0141434 
244 2 1.74631 21.2714 1.79689 
245 3 3.50206 21.2477 0.0520585 
247 3 3.56825 23.0249 1.84915 
642 1 1.74514 23.1059 3.5674 
645 2 3.56106 21.3208 3.51298 
246 3 5.24446 23.0073 0.0187817 
248 2 5.3254 21.2649 1.74112 
251 3 7.03795 23.0038 1.73818 
646 2 5.32012 23.075 3.50893 
649 1 7.08388 21.2703 3.56087 
250 3 8.90042 22.9551 0.0643864 
252 2 8.8853 21.2681 1.78026 
253 1 10.6956 21.243 0.0327835 
255 3 10.6621 23.0573 1.75284 
650 3 8.85277 23.0484 3.44977 
653 3 10.6399 21.2767 3.55133 
254 2 12.4054 23.0515 0.0507264 
256 1 12.4718 21.2812 1.80563 
257 1 14.2275 21.2975 0.0293562 
259 3 14.2429 23.0553 1.76907 
654 1 12.4368 23.07 3.53802 
657 3 14.2915 21.3638 3.54046 
258 2 16.0121 23.1127 0.0295071 
260 2 15.981 21.3349 1.82328 
261 2 17.7714 21.3119 0.0293837 
263 2 17.753 23.0748 1.79429 
264 3 19.5363 21.3277 1.72184 
658 1 15.9868 23.1221 3.55537 
661 3 17.7254 21.3384 3.51316 
662 1 19.5313 23.0688 3.56617 
265 2 21.3193 21.2856 0.0105423 
267 2 21.3225 23.0654 1.79273 
268 3 23.0612 21.2739 1.76639 
308 2 23.0819 23.0688 0.0171188 
665 1 21.3057 21.2876 3.56577 
708 1 23.0899 23.0621 3.56031 
271 2 24.8699 23.0628 1.79843 
272 3 26.6693 21.2746 1.82673 
669 1 24.8663 21.294 3.56031 
670 2 26.6457 23.0807 3.55915 
273 2 28.3948 21.3 0.0240617 
274 3 30.1743 23.053 0.0648796 
275 1 28.3974 23.0702 1.78424 
276 2 30.1812 21.3038 1.80445 
673 2 28.4 21.285 3.54763 
674 3 30.1488 23.0528 3.52303 
243 1 35.4848 23.0686 1.7886 
278 2 33.694 23.0772 0.0732385 
279 3 31.9202 23.0731 1.78291 
280 3 33.761 21.271 1.8042 
641 1 35.4957 21.3165 3.59661 
677 1 31.9621 21.305 3.5563 
678 3 33.6887 23.1089 3.54793 
284 3 1.72136 24.8693 1.78073 
285 1 3.53254 24.8073 0.032896 
287 1 3.52786 26.6476 1.78106 
682 1 1.74478 26.6485 3.54952 
685 1 3.51902 24.869 3.55923 
288 3 5.32963 24.8673 1.77298 
289 3 7.0384 24.8829 0.0083536 
291 3 7.04946 26.692 1.73585 
686 2 5.33056 26.6318 3.545 
689 1 7.10298 24.8774 3.53014 
290 3 8.94395 26.7487 0.0728047 
292 3 8.8467 24.806 1.70255 
295 2 10.5959 26.6421 1.75325 
690 3 8.89196 26.691 3.43839 
693 1 10.6383 24.8484 3.51367 
296 1 12.461 24.8677 1.77797 
297 1 14.2028 24.8491 0.00861479 
299 3 14.241 26.6975 1.76892 
694 1 12.4096 26.6554 3.54114 
697 1 14.2045 24.8757 3.53862 
300 2 15.9638 24.8745 1.76001 
301 3 17.7247 24.8196 0.0987388 
302 3 19.5283 26.6007 0.0139856 
303 2 17.7655 26.662 1.76177 
304 2 19.5639 24.8341 1.74748 
698 3 16.0328 26.6372 3.52277 
701 3 17.7721 24.8666 3.42419 
702 1 19.5536 26.6094 3.53085 
305 3 21.4155 24.8416 0.0543109 
307 2 21.3414 26.5945 1.74624 
666 3 21.2901 24.8598 3.5399 
705 2 23.0783 26.5764 3.53792 
706 3 23.1394 24.7884 1.74378 
309 2 24.8286 24.8367 0.0314865 
311 1 24.8574 26.6168 1.78168 
312 2 26.6265 24.8548 1.78814 
709 3 24.8699 24.8428 3.56356 
710 2 26.6262 26.5802 3.54383 
313 1 28.3942 24.8488 0.00187982 
314 1 30.163 26.598 0.0188545 
315 3 28.3903 26.625 1.85205 
316 2 30.1765 24.8416 1.79939 
713 3 28.4025 24.8756 3.58383 
714 2 30.1752 26.604 3.53884 
281 3 35.5017 24.8613 0.0135843 
283 2 35.4895 26.6089 1.71123 
318 3 33.6934 26.6345 0.0132935 
319 3 31.9869 26.6464 1.77372 
320 1 33.7163 24.8493 1.78071 
681 3 35.4704 24.88 3.51444 
717 1 31.9323 24.8581 3.57041 
718 2 33.741 26.6143 3.51033 
322 1 1.74779 30.2114 0.00459761 
324 1 1.75559 28.4231 1.77653 
327 3 3.4663 30.2487 1.80622 
722 2 1.7623 30.1779 3.54876 
725 2 3.50062 28.4315 3.56575 
328 1 5.27557 28.4388 1.78224 
331 2 7.08302 30.1982 1.78342 
726 2 5.28117 30.1931 3.56623 
729 1 7.07374 28.4221 3.55104 
330 2 8.8814 30.1791 0.0111933 
332 3 8.88638 28.5047 1.7725 
335 2 10.6653 30.1993 1.76788 
730 2 8.88779 30.1718 3.52823 
733 2 10.6107 28.431 3.51163 
334 3 12.4105 30.1967 0.023017 
336 1 12.4311 28.4071 1.76134 
339 2 14.2257 30.1952 1.76215 
734 2 12.4496 30.2012 3.54833 
737 1 14.215 28.4252 3.53645 
340 3 16.015 28.4497 1.72801 
342 2 19.5634 30.1728 0.000177416 
343 3 17.8033 30.1687 1.78333 
344 2 19.5778 28.3933 1.75542 
738 3 15.9782 30.244 3.55235 
741 2 17.7846 28.4307 3.53034 
742 3 19.5918 30.1423 3.4963 
347 3 21.3137 30.2035 1.6689 
348 1 23.0853 28.3857 1.73853 
745 3 21.3109 28.3219 3.52422 
746 1 23.0503 30.1357 3.52183 
351 2 24.8321 30.1879 1.71746 
352 1 26.6248 28.4092 1.7634 
749 1 24.8524 28.4033 3.54565 
750 2 26.6375 30.2518 3.5515 
355 1 28.4093 30.1616 1.76615 
356 1 30.1896 28.4015 1.7819 
753 2 28.4138 28.3731 3.53302 
754 3 30.2062 30.2173 3.53688 
323 2 35.4973 30.1889 1.76719 
359 3 31.9786 30.1583 1.74004 
360 2 33.7102 28.3934 1.74847 
721 1 35.4776 28.4243 3.54179 
757 1 31.9625 28.413 3.55188 
758 2 33.6952 30.1982 3.51882 
4 1 1.76289 35.4909 1.78951 
362 3 1.77582 33.7508 0.0332658 
364 2 1.78318 31.9552 1.76889 
367 2 3.57158 33.7392 1.75343 
405 1 3.51435 35.4943 3.57948 
762 1 1.75344 33.7 3.56036 
765 1 3.51581 31.9503 3.55988 
8 3 5.2894 35.4758 1.78616 
366 3 5.31954 33.7272 0.0112915 
368 1 5.29113 31.9322 1.79862 
369 3 7.08709 31.9222 0.0839691 
371 3 7.01898 33.6876 1.85647 
766 2 5.27848 33.7298 3.57868 
769 2 7.07475 31.9798 3.57125 
370 1 8.82734 33.7506 0.0182183 
372 1 8.88763 31.949 1.79798 
373 1 10.6457 31.9946 0.0144426 
375 3 10.6755 33.7744 1.77067 
770 1 8.90971 33.7141 3.55244 
773 3 10.696 31.8775 3.59265 
374 2 12.4694 33.767 0.00685486 
376 1 12.4208 31.9875 1.7884 
379 1 14.2252 33.7534 1.7594 
774 3 12.4511 33.7325 3.57498 
777 2 14.2202 31.9704 3.53924 
20 2 15.9887 35.5026 1.73385 
380 3 15.9992 31.9634 1.75452 
383 3 17.8028 33.732 1.72881 
384 2 19.5623 31.9786 1.76856 
421 1 17.7889 35.4902 3.53224 
778 1 16.0058 33.7403 3.53581 
781 1 17.7974 31.9801 3.5517 
782 3 19.5681 33.7704 3.55647 
387 1 21.3249 33.7738 1.74021 
388 2 23.0868 31.9534 1.7533 
785 3 21.3309 31.9599 3.51651 
786 1 23.0814 33.7723 3.52032 
391 2 24.8351 33.7253 1.73465 
392 1 26.6084 31.9575 1.77065 
789 3 24.7996 31.9378 3.55937 
790 3 26.603 33.7065 3.45772 
36 2 30.1942 35.4996 1.77299 
394 3 30.116 33.7867 0.0275185 
395 2 28.4157 33.6982 1.75035 
396 2 30.1825 31.9021 1.73769 
433 1 28.4027 35.4787 3.51857 
793 3 28.4342 31.9501 3.51476 
794 1 30.1682 33.6939 3.51439 
37 1 31.9576 35.4978 0.00800483 
363 2 35.48 33.7305 1.79549 
398 1 33.7247 33.7529 0.00473485 
399 1 31.961 33.706 1.75436 
400 1 33.7383 31.9583 1.77663 
401 1 35.4851 35.4882 3.58483 
437 1 31.9433 35.4915 3.53407 
761 1 35.4785 31.9303 3.55681 
797 2 31.9226 31.8929 3.49242 
798 3 33.6882 33.6849 3.54857 
403 3 0.0240577 1.77211 5.36012 
407 1 3.51766 1.76927 5.34739 
444 2 1.77864 3.53897 5.37266 
802 3 1.76848 1.81577 7.192 
845 3 3.51941 3.54268 7.13424 
411 1 7.09053 1.77455 5.33712 
448 1 5.31401 3.55253 5.35032 
806 2 5.30788 1.78198 7.12128 
849 3 7.11841 3.55264 7.12854 
415 3 10.6052 1.78272 5.29558 
452 2 8.86454 3.54214 5.29306 
810 1 8.86979 1.76622 7.09308 
813 1 10.6629 0.00669558 7.09015 
853 2 10.6359 3.57279 7.07037 
419 3 14.3085 1.80703 5.32417 
456 1 12.4457 3.54228 5.30876 
814 1 12.4371 1.78203 7.0763 
817 1 14.2189 0.00254791 7.0988 
857 2 14.2216 3.53998 7.05322 
420 2 15.9853 0.0319017 5.32115 
423 3 17.7428 1.73338 5.29772 
424 2 19.5704 0.042518 5.30344 
460 3 15.9989 3.57157 5.29669 
464 3 19.5468 3.53424 5.33034 
818 3 16.0104 1.77762 7.13336 
821 2 17.7779 0.0476126 7.09357 
822 3 19.5406 1.72242 7.03825 
861 1 17.7683 3.55927 7.08961 
427 2 21.3506 1.80211 5.30895 
428 3 23.1155 0.109324 5.32698 
468 3 23.1271 3.53685 5.28561 
826 2 23.1221 1.77552 7.05436 
865 1 21.3354 3.57071 7.07831 
431 3 24.8955 1.84505 5.30328 
432 1 26.6304 0.0112375 5.30075 
472 3 26.6987 3.65024 5.29462 
829 3 24.8884 0.05093 7.08776 
830 3 26.6808 1.84826 7.11181 
869 1 24.8791 3.57412 7.08511 
435 1 28.4082 1.76428 5.3021 
476 3 30.1352 3.5921 5.32605 
834 2 30.1726 1.74433 7.03094 
873 2 28.4283 3.54934 7.07394 
439 3 31.8798 1.78897 5.31382 
440 3 33.6692 0.0129805 5.27627 
480 2 33.6865 3.5329 5.31563 
838 1 33.7197 1.76842 7.10453 
841 1 35.4854 3.57032 7.10995 
877 1 31.9236 3.55885 7.09828 
443 2 0.00262288 5.37232 5.38238 
447 1 3.54039 5.32845 5.35821 
484 2 1.79195 7.12354 5.34528 
842 2 1.77217 5.29112 7.15228 
885 1 3.55637 7.0828 7.12046 
451 1 7.09656 5.32079 5.35027 
488 3 5.28716 7.13127 5.30186 
846 3 5.32391 5.29401 7.10912 
889 1 7.08733 7.07678 7.12407 
455 2 10.6514 5.32817 5.33617 
492 1 8.88354 7.112 5.35786 
850 2 8.90633 5.32054 7.12052 
893 1 10.6593 7.12308 7.11445 
459 1 14.1926 5.33255 5.31064 
496 1 12.4411 7.09266 5.33697 
854 3 12.3906 5.30711 7.08428 
897 2 14.168 7.07834 7.16618 
463 3 17.7338 5.35987 5.34562 
500 1 15.9451 7.12721 5.35244 
504 1 19.5299 7.12163 5.32135 
858 1 15.9453 5.34054 7.1101 
862 3 19.5162 5.36466 7.09247 
901 2 17.7648 7.09586 7.12079 
467 1 21.3255 5.33991 5.31095 
508 3 23.0863 7.15474 5.27632 
866 1 23.0844 5.36126 7.11273 
905 1 21.3259 7.12554 7.10229 
471 1 24.8533 5.34837 5.31064 
512 2 26.6268 7.13361 5.31484 
870 2 26.6501 5.32977 7.07207 
909 1 24.8606 7.1228 7.09775 
475 2 28.4063 5.32404 5.32099 
516 3 30.0953 7.1113 5.34742 
874 2 30.1848 5.3695 7.07857 
913 2 28.4168 7.10192 7.09648 
479 1 31.9506 5.36467 5.31868 
520 3 33.8783 7.10742 5.30111 
878 1 33.6983 5.3354 7.10356 
881 2 35.4839 7.07763 7.17868 
917 3 31.8979 7.08882 7.1135 
483 2 0.0172478 8.85558 5.39015 
487 3 3.43148 8.83233 5.30202 
524 2 1.80605 10.6332 5.37 
882 1 1.77112 8.86226 7.14339 
921 2 0.0230002 10.6511 7.12612 
925 3 3.57663 10.6206 7.11414 
491 1 7.11497 8.86756 5.33521 
528 3 5.3335 10.6264 5.25912 
886 1 5.30953 8.86728 7.08165 
929 1 7.09645 10.6266 7.1203 
495 3 10.6888 8.82539 5.21122 
532 1 8.90114 10.6035 5.35319 
890 3 8.89986 8.83015 7.21186 
933 3 10.6444 10.5657 7.16797 
499 2 14.1573 8.85764 5.33553 
536 1 12.4148 10.6377 5.35186 
894 1 12.4038 8.87419 7.1207 
937 1 14.1906 10.6335 7.11388 
503 1 17.7307 8.88421 5.34674 
540 1 15.9496 10.6484 5.38091 
544 2 19.5142 10.6606 5.32479 
898 2 15.9781 8.83864 7.1627 
902 3 19.4885 8.89215 7.0613 
941 1 17.7497 10.6372 7.13086 
507 2 21.3043 8.88816 5.31635 
548 2 23.0951 10.631 5.35706 
906 2 23.0987 8.87609 7.09989 
945 1 21.2911 10.6354 7.11714 
511 3 24.8354 8.90451 5.33739 
552 1 26.636 10.6377 5.33433 
910 3 26.6586 8.85044 7.059 
949 2 24.8623 10.6472 7.12193 
515 2 28.4141 8.89511 5.32162 
556 3 30.2158 10.5972 5.3469 
914 1 30.1787 8.86274 7.12943 
953 2 28.4094 10.6355 7.10658 
519 2 31.9786 8.8195 5.36454 
560 1 33.7447 10.62 5.36045 
918 1 33.7233 8.83618 7.15654 
957 2 31.9539 10.6164 7.13005 
523 3 0.0132078 12.3811 5.3914 
527 1 3.56316 12.4022 5.35364 
564 2 1.7827 14.1633 5.36853 
922 3 1.77422 12.4163 7.10061 
965 3 3.57821 14.2038 7.12317 
531 1 7.12565 12.3946 5.3281 
568 1 5.36728 14.1677 5.33009 
926 1 5.33221 12.3771 7.14051 
969 1 7.13445 14.1791 7.11668 
535 1 10.6562 12.4125 5.36666 
572 3 8.87921 14.2258 5.3208 
930 1 8.90979 12.4197 7.11553 
973 3 10.6358 14.2532 7.10716 
539 1 14.1987 12.4385 5.37825 
576 1 12.4191 14.1903 5.3668 
934 3 12.3341 12.4184 7.17666 
977 1 14.1834 14.1863 7.13688 
543 1 17.7339 12.4364 5.36365 
580 3 16.0067 14.2611 5.40369 
584 3 19.4549 14.2393 5.34755 
938 2 16.0046 12.4814 7.15321 
942 1 19.5342 12.4335 7.10811 
981 3 17.7345 14.2321 7.16708 
547 3 21.3379 12.3239 5.29641 
588 3 23.0891 14.1507 5.35467 
946 1 23.0747 12.4218 7.13026 
985 3 21.2846 14.2105 7.00992 
551 2 24.8706 12.431 5.37672 
592 3 26.6773 14.1667 5.36218 
950 3 26.6485 12.394 7.12448 
989 3 24.9073 14.1809 7.14096 
555 3 28.4553 12.4203 5.35688 
596 3 30.1783 14.2145 5.37081 
954 2 30.1617 12.4198 7.09606 
993 2 28.369 14.175 7.12933 
559 1 31.9687 12.3972 5.34208 
600 1 33.7256 14.1906 5.34681 
958 2 33.7397 12.4083 7.11382 
961 1 35.4858 14.1826 7.14583 
997 3 31.9407 14.144 7.17198 
567 3 3.59131 15.9282 5.38516 
603 2 0.00101122 19.5059 5.37005 
604 1 1.82017 17.7364 5.37036 
607 3 3.61066 19.6135 5.20216 
962 1 1.77932 15.9468 7.13819 
1002 3 1.89511 19.5481 7.10318 
1005 3 3.56937 17.7446 7.13365 
571 1 7.12526 15.9743 5.35221 
608 3 5.32461 17.7615 5.32687 
611 2 7.06109 19.4968 5.36167 
966 1 5.36917 15.957 7.11552 
1006 3 5.31288 19.5442 7.12795 
1009 3 7.13648 17.7723 7.17772 
575 1 10.6463 15.9839 5.34814 
612 1 8.8713 17.7498 5.34105 
615 2 10.6639 19.5174 5.34392 
970 2 8.89255 15.9894 7.12372 
1010 2 8.88266 19.5061 7.1189 
1013 3 10.6011 17.7913 7.09762 
579 3 14.2015 16.0129 5.41458 
616 2 12.4373 17.7313 5.36109 
619 1 14.2014 19.5183 5.32971 
974 2 12.3942 15.9751 7.11533 
1014 1 12.4098 19.517 7.10862 
1017 2 14.2179 17.7494 7.11144 
583 2 17.7296 15.9795 5.3609 
620 2 15.9693 17.7293 5.35064 
623 1 17.7516 19.5446 5.30693 
624 1 19.5326 17.7602 5.31322 
978 2 15.9874 15.9826 7.12155 
982 1 19.5551 15.9959 7.10695 
1018 3 15.9687 19.5353 7.10297 
1021 3 17.7343 17.7384 7.08617 
1022 1 19.5261 19.52 7.09651 
587 3 21.3345 16.043 5.28748 
627 1 21.3247 19.5174 5.33038 
628 1 23.0799 17.7682 5.33964 
986 1 23.0618 15.977 7.09779 
1025 2 21.2825 17.7793 7.15029 
1026 2 23.0162 19.6046 7.14887 
591 1 24.8535 15.9677 5.35322 
631 1 24.8356 19.5327 5.35528 
632 2 26.6376 17.7445 5.34523 
990 2 26.5758 15.8678 7.13232 
1029 1 24.8579 17.7498 7.12359 
1030 1 26.6185 19.5426 7.11848 
595 1 28.3831 15.9844 5.36419 
635 2 28.3961 19.5327 5.34838 
636 1 30.17 17.7742 5.38035 
994 1 30.1539 15.9706 7.1716 
1033 1 28.3601 17.7732 7.13239 
1034 2 30.1822 19.5503 7.16376 
563 3 35.4927 15.9845 5.38076 
599 3 31.9175 15.9614 5.35235 
639 2 31.9441 19.5248 5.31228 
640 1 33.6989 17.7463 5.38835 
998 2 33.6427 15.9671 7.13305 
1001 3 35.4978 17.7373 7.1015 
1037 3 31.9224 17.8077 7.15413 
1038 3 33.6124 19.5592 7.12989 
644 3 1.81018 21.2988 5.31792 
647 2 3.54003 23.0461 5.32203 
1042 1 1.73654 23.0859 7.11312 
1045 2 3.55705 21.2946 7.12273 
648 2 5.28335 21.2675 5.3461 
651 1 7.089 23.0814 5.31156 
1046 3 5.27382 23.062 7.08793 
1049 1 7.10404 21.3134 7.07933 
652 1 8.88737 21.3054 5.2911 
655 3 10.6828 23.064 5.29587 
1050 1 8.89906 23.1046 7.04631 
1053 1 10.6513 21.313 7.07412 
656 1 12.4422 21.2977 5.29526 
659 2 14.2039 23.0824 5.3407 
1054 3 12.4468 23.0894 7.06405 
1057 2 14.209 21.3121 7.12095 
660 3 15.962 21.3162 5.30219 
663 3 17.757 23.0933 5.34212 
664 3 19.5619 21.3188 5.37132 
1058 1 15.9742 23.0856 7.08877 
1061 1 17.7638 21.312 7.0887 
1062 2 19.5498 23.0736 7.10188 
667 1 21.3208 23.099 5.33476 
668 3 23.0526 21.2947 5.37 
1065 3 21.281 21.2911 7.11044 
1066 3 23.0371 23.0583 7.10507 
671 1 24.8616 23.0654 5.35483 
672 2 26.6323 21.3128 5.34716 
1069 1 24.8414 21.3235 7.11284 
1070 3 26.7093 23.0666 7.1354 
675 1 28.4126 23.0508 5.3354 
676 1 30.1776 21.3061 5.35019 
1073 2 28.4046 21.2961 7.1412 
1074 3 30.191 23.0199 7.13608 
643 1 35.4801 23.1121 5.35991 
679 2 31.9206 23.1037 5.31518 
680 1 33.7237 21.3148 5.34128 
1041 3 35.4999 21.2379 7.09654 
1077 2 31.9465 21.2908 7.12918 
1078 1 33.7204 23.0878 7.12522 
684 1 1.7361 24.8841 5.34107 
687 2 3.52341 26.6818 5.35826 
1082 3 1.74349 26.6816 7.09583 
1085 1 3.52376 24.8597 7.08359 
688 1 5.2951 24.8435 5.31246 
691 3 7.08362 26.6227 5.35369 
1086 3 5.35959 26.6231 7.09077 
1089 2 7.05363 24.9061 7.04371 
692 1 8.88304 24.8543 5.26768 
695 1 10.6359 26.6517 5.29303 
1090 2 8.79395 26.6477 7.02806 
1093 1 10.6565 24.8703 7.07003 
696 2 12.4094 24.8351 5.32513 
699 1 14.2095 26.6546 5.30396 
1094 3 12.4523 26.6365 7.04457 
1097 3 14.139 24.8546 7.06314 
700 1 16.0053 24.889 5.32448 
703 3 17.7774 26.702 5.26214 
704 2 19.4667 24.835 5.34838 
1098 3 16.013 26.6569 7.1101 
1101 3 17.8364 24.8132 7.17414 
1144 2 19.4513 26.5923 7.09841 
707 1 21.313 26.5943 5.33816 
711 2 23.1368 24.8454 5.29868 
1102 1 21.3058 24.8521 7.1248 
1106 2 23.1222 26.5983 7.08547 
712 2 26.6473 24.8389 5.35861 
1108 1 24.8576 24.8274 7.12172 
1109 3 24.8831 26.5836 5.33982 
1110 2 26.6668 26.5852 7.13417 
715 2 28.4025 26.5732 5.29545 
716 3 30.1452 24.8757 5.34275 
1113 2 28.4305 24.83 7.09813 
1114 2 30.1414 26.6156 7.12017 
683 1 35.4912 26.6469 5.31761 
719 1 31.958 26.639 5.34705 
720 1 33.7269 24.8719 5.33672 
1081 3 35.4862 24.9227 7.18537 
1117 1 31.9465 24.8462 7.12034 
1118 2 33.795 26.5775 7.15563 
723 2 0.0305005 30.1569 5.31586 
724 3 1.77028 28.4621 5.29003 
727 1 3.53366 30.1887 5.32327 
1121 2 0.0656607 28.3681 7.09885 
1122 1 1.7659 30.1573 7.09069 
1125 2 3.53328 28.3932 7.09711 
728 1 5.30695 28.399 5.3341 
731 1 7.09137 30.1837 5.32477 
1126 2 5.34483 30.1797 7.07014 
1129 3 7.07071 28.3349 7.10932 
732 1 8.86815 28.4036 5.29345 
735 2 10.6828 30.2036 5.27873 
1130 1 8.87082 30.1651 7.07879 
1133 1 10.6411 28.4032 7.07713 
736 2 12.4393 28.4397 5.31176 
739 3 14.1808 30.1962 5.31487 
1134 1 12.4134 30.1859 7.09094 
1137 2 14.2245 28.4063 7.07229 
740 3 16.0115 28.441 5.31957 
743 2 17.7856 30.1893 5.30329 
744 2 19.5473 28.4182 5.31175 
1138 1 15.9946 30.2035 7.09695 
1141 1 17.7848 28.4245 7.11269 
1142 3 19.5432 30.2076 7.09896 
747 3 21.3155 30.1398 5.34972 
748 1 21.3105 28.3748 7.10878 
1145 1 23.0867 28.3661 5.33413 
1146 2 23.0934 30.1923 7.10258 
751 2 24.8509 30.1747 5.3369 
752 1 26.6241 28.3777 5.2867 
1149 2 24.8717 28.3802 7.08067 
1150 1 26.6816 30.121 7.07267 
755 1 28.4222 30.1763 5.29282 
756 2 30.1554 28.379 5.32291 
1153 3 28.4445 28.2649 6.94796 
1154 1 30.1728 30.1501 7.10328 
759 1 31.9616 30.1778 5.32356 
760 1 33.742 28.4075 5.33821 
1157 1 31.9632 28.4008 7.10866 
1158 1 33.734 30.1684 7.08949 
404 3 1.77957 35.4842 5.36309 
764 2 1.77678 31.9328 5.32934 
767 3 3.51045 33.6878 5.34698 
805 1 3.54 35.498 7.12322 
1162 1 1.76596 33.693 7.10114 
1165 2 3.57323 31.9629 7.05276 
408 3 5.30436 35.4795 5.33708 
768 3 5.30954 31.9646 5.32204 
771 3 7.09199 33.6933 5.25722 
809 1 7.08956 35.4721 7.10746 
1166 1 5.32981 33.7259 7.1025 
1169 3 7.07885 31.9691 7.08757 
412 3 8.84551 35.4814 5.31603 
772 1 8.87834 31.9386 5.32613 
775 1 10.6628 33.7354 5.32545 
1170 3 8.89696 33.7104 7.10236 
1173 2 10.642 31.9741 7.10203 
416 3 12.4819 35.4977 5.31233 
776 2 12.4401 31.9635 5.29654 
779 1 14.2273 33.7247 5.3399 
1174 2 12.4123 33.7072 7.0933 
1177 2 14.2105 31.9368 7.06511 
780 3 15.9955 31.9629 5.34226 
783 2 17.7782 33.747 5.33119 
784 1 19.5718 31.958 5.31632 
1178 2 16.0232 33.7279 7.07152 
1181 3 17.7631 32.0021 7.06068 
1182 1 19.5494 33.738 7.0914 
787 1 21.3503 33.7454 5.31735 
788 2 23.1054 31.941 5.27849 
825 1 21.3402 35.4964 7.08586 
1185 1 21.3347 31.9528 7.08982 
1186 3 23.1416 33.6959 7.11386 
791 1 24.8447 33.7664 5.28763 
792 3 26.5841 31.9387 5.30258 
1189 3 24.8257 31.8552 7.0386 
1190 3 26.5647 33.6816 7.11145 
436 3 30.1872 35.4394 5.31533 
795 3 28.3882 33.7068 5.31812 
796 1 30.1936 31.9497 5.32808 
833 3 28.3912 35.4797 7.09095 
1193 3 28.415 31.985 7.12942 
1194 1 30.1956 33.7331 7.11171 
763 1 35.4917 33.7108 5.32866 
799 2 31.9577 33.7286 5.29383 
800 1 33.7119 31.9475 5.31594 
801 1 35.4784 35.4848 7.10029 
837 1 31.9582 35.5028 7.10732 
1161 2 35.4943 31.9515 7.11062 
1197 2 31.9154 31.9255 7.17046 
1198 1 33.7005 33.7077 7.08544 
803 3 0.00814677 1.78145 8.89787 
807 2 3.54035 1.78976 8.88033 
844 2 1.75985 3.57516 8.92111 
1202 3 1.80045 1.77403 10.5825 
1205 2 3.52461 0.00614818 10.6324 
1241 2 0.00248383 3.50874 10.6581 
1245 2 3.54422 3.54799 10.6411 
808 3 5.32918 0.0268224 8.91146 
811 2 7.09622 1.74523 8.87601 
848 1 5.34963 3.55114 8.86497 
1206 2 5.3228 1.75995 10.6441 
1209 2 7.1242 0.000163994 10.6589 
1249 2 7.12022 3.51493 10.6335 
815 1 10.6562 1.78383 8.85391 
852 1 8.88792 3.55861 8.86027 
1210 1 8.88993 1.76782 10.6206 
1253 2 10.6623 3.5649 10.6159 
819 1 14.2078 1.7949 8.86287 
856 2 12.436 3.63203 8.81065 
1214 1 12.4043 1.76788 10.6283 
1257 2 14.2065 3.54447 10.6564 
820 2 16.0215 0.00588764 8.85717 
823 3 17.7678 1.76408 8.83608 
824 2 19.5345 0.00890332 8.87948 
860 2 15.9836 3.55285 8.83356 
864 2 19.5623 3.55224 8.80335 
1218 1 15.9977 1.7553 10.6078 
1222 1 19.5627 1.78401 10.6135 
1261 1 17.767 3.5551 10.5974 
827 1 21.3152 1.76877 8.84722 
828 1 23.086 0.00924487 8.86838 
868 3 23.0556 3.51928 8.86543 
1226 3 23.0709 1.79089 10.6444 
1265 2 21.3449 3.54 10.5925 
831 1 24.8517 1.79737 8.87363 
832 1 26.6429 0.0352633 8.89467 
872 2 26.6569 3.55588 8.88961 
1229 2 24.8752 0.0393802 10.6637 
1230 2 26.6522 1.80079 10.6883 
1269 1 24.8429 3.56592 10.6455 
835 1 28.4497 1.78324 8.88332 
876 1 30.214 3.57417 8.88064 
1234 1 30.1937 1.78542 10.6811 
1273 3 28.3769 3.56423 10.6504 
839 1 31.9854 1.77287 8.89887 
880 1 33.7183 3.56364 8.90793 
1237 1 31.9893 0.0120671 10.6833 
1238 3 33.7947 1.76913 10.6695 
1277 1 31.9663 3.58776 10.6933 
847 1 3.56595 5.32521 8.90026 
884 1 1.77659 7.0712 8.913 
1242 3 1.74604 5.28802 10.6752 
1285 1 3.54758 7.08924 10.6804 
851 1 7.11926 5.32268 8.87711 
888 1 5.33529 7.11791 8.89862 
1246 1 5.34271 5.34827 10.6535 
1289 2 7.10785 7.1325 10.6649 
855 3 10.6779 5.27824 8.80996 
892 2 8.90681 7.12033 8.87306 
1250 1 8.89073 5.31395 10.6304 
1293 1 10.6525 7.07295 10.651 
859 3 14.1665 5.30166 8.85098 