ITEM: TIMESTEP
1000
ITEM: NUMBER OF ATOMS
3999
ITEM: BOX BOUNDS pp pp pp
0.0000000000000000e+00 3.5503000000000000e+01
0.0000000000000000e+00 3.5503000000000000e+01
0.0000000000000000e+00 3.5503000000000000e+01
ITEM: ATOMS id type x y z 
7 3 3.52049 1.7371 1.75704 
44 1 1.77437 3.56157 1.79374 
45 1 3.52958 3.58061 0.0121711 
402 1 1.75507 1.79096 3.5793 
445 3 3.52584 3.59166 3.55491 
6 3 5.27478 1.78068 0.0428373 
9 3 7.03995 0.0674972 0.0133618 
11 2 7.09026 1.79052 1.78066 
48 1 5.29667 3.57118 1.80882 
49 1 7.10189 3.56369 0.0102234 
406 1 5.29767 1.78696 3.56083 
409 1 7.08159 0.0098009 3.55317 
449 3 7.12672 3.5759 3.5474 
10 3 8.9196 1.79201 0.00617076 
12 1 8.86164 0.000637757 1.77907 
13 3 10.6914 0.0206626 0.0227957 
15 2 10.6312 1.76838 1.7749 
52 1 8.88873 3.58543 1.79194 
410 3 8.89698 1.77022 3.55445 
413 2 10.6755 0.000676361 3.5732 
453 1 10.6674 3.57635 3.54494 
14 1 12.4294 1.80808 0.00742186 
16 1 12.4465 0.0171249 1.78768 
19 2 14.2373 1.78401 1.80117 
56 1 12.442 3.57713 1.76498 
57 2 14.223 3.52727 0.00114619 
414 1 12.4493 1.77862 3.55615 
417 3 14.2414 0.00134153 3.55918 
457 3 14.258 3.58826 3.47852 
23 2 17.7603 1.79974 1.77818 
24 1 19.5665 0.029153 1.74871 
60 2 15.9941 3.57949 1.80908 
61 3 17.7191 3.50122 0.0224649 
64 3 19.4971 3.56233 1.74125 
418 3 16.0403 1.75595 3.48102 
422 1 19.5608 1.79929 3.52813 
461 2 17.7434 3.5783 3.56745 
27 1 21.3153 1.80681 1.72227 
28 1 23.083 0.0364341 1.73641 
68 1 23.0935 3.59431 1.7463 
425 3 21.3402 0.0238799 3.59138 
426 1 23.1048 1.81736 3.50461 
465 1 21.3209 3.58244 3.51741 
30 3 26.6478 1.75046 0.00989174 
31 2 24.9102 1.81584 1.7267 
32 1 26.6242 0.00228139 1.73832 
72 2 26.6558 3.579 1.73536 
429 1 24.8583 0.0412598 3.50566 
430 1 26.6415 1.81976 3.52539 
469 2 24.8776 3.56525 3.57836 
35 1 28.4057 1.76698 1.75076 
76 1 30.1828 3.56041 1.76601 
434 3 30.163 1.7447 3.53015 
473 2 28.4501 3.56422 3.54623 
1 1 35.4909 0.00800872 0.00869341 
3 2 35.4718 1.77412 1.77868 
38 3 33.7257 1.77117 0.0506037 
39 2 31.9647 1.81261 1.8084 
40 3 33.727 0.0448943 1.84104 
80 1 33.7349 3.56566 1.78703 
438 3 33.7387 1.80536 3.60692 
441 1 35.5009 3.56934 3.59106 
477 3 31.9242 3.56355 3.582 
42 2 1.77456 5.35916 0.0142645 
43 1 0.0269636 5.36233 1.79119 
47 3 3.49978 5.42116 1.8287 
84 3 1.78602 7.17064 1.83694 
442 1 1.76723 5.33809 3.58528 
481 2 0.0462341 7.12918 3.57488 
485 2 3.56789 7.09769 3.58525 
46 1 5.31191 5.32367 0.0047063 
51 3 7.08301 5.32546 1.80854 
88 1 5.33153 7.09683 1.77885 
89 3 7.12238 7.16525 0.0056589 
446 2 5.32157 5.32834 3.57343 
489 1 7.1099 7.0969 3.56058 
50 1 8.88371 5.33406 0.0189647 
55 3 10.7063 5.33974 1.80139 
92 1 8.89396 7.07196 1.78104 
450 3 8.91681 5.34775 3.60784 
493 2 10.6527 7.11433 3.55871 
59 2 14.2172 5.3387 1.78446 
96 1 12.4485 7.10268 1.76345 
454 2 12.4328 5.35081 3.53379 
497 2 14.2041 7.11343 3.53811 
63 1 17.7424 5.37124 1.75857 
100 1 15.9768 7.15127 1.75292 
104 1 19.5019 7.13017 1.78361 
458 3 15.9356 5.38939 3.51795 
462 3 19.5114 5.29371 3.54973 
501 3 17.7464 7.1235 3.57191 
67 1 21.3007 5.32982 1.74501 
108 1 23.083 7.1022 1.77668 
466 2 23.0853 5.35358 3.573 
505 2 21.2646 7.11116 3.55397 
70 3 26.6992 5.33675 0.0374237 
71 1 24.8567 5.3397 1.76342 
112 1 26.6129 7.11372 1.76836 
470 2 26.6416 5.31689 3.55219 
509 2 24.8671 7.12945 3.56954 
75 2 28.4196 5.32551 1.77374 
113 3 28.4317 7.09295 0.0083189 
116 1 30.1911 7.12072 1.78088 
474 3 30.1448 5.38486 3.54908 
513 1 28.3738 7.1274 3.53898 
78 1 33.755 5.35212 0.0167332 
79 3 31.9445 5.34372 1.77632 
120 1 33.7594 7.11855 1.78737 
478 1 33.7334 5.34327 3.568 
517 2 31.947 7.1183 3.58004 
82 1 1.78441 8.89305 0.0108345 
83 2 0.0183966 8.89081 1.76324 
87 2 3.55422 8.83706 1.81391 
124 1 1.78795 10.6545 1.78917 
125 1 3.56587 10.6236 0.0111078 
482 2 1.80322 8.87138 3.58887 
521 1 0.0253844 10.6417 3.5797 
525 1 3.56226 10.6426 3.56002 
91 2 7.12834 8.85439 1.79576 
128 1 5.34214 10.6271 1.79101 
486 3 5.31196 8.86609 3.5612 
529 3 7.12847 10.56 3.53601 
90 3 8.89834 8.86987 0.0302218 
95 2 10.6511 8.87156 1.80463 
132 1 8.90415 10.672 1.77547 
133 3 10.6371 10.652 0.00494353 
490 3 8.92199 8.86862 3.51968 
533 1 10.6687 10.6453 3.55112 
94 1 12.4143 8.89795 0.0149808 
99 2 14.1859 8.88958 1.79192 
136 1 12.4088 10.6693 1.79602 
137 1 14.1805 10.6774 0.0177593 
494 3 12.4637 8.79458 3.55561 
537 1 14.1901 10.6289 3.57724 
98 1 15.951 8.90695 0.00142566 
103 3 17.7556 8.93401 1.81118 
140 2 15.9869 10.6659 1.78727 
144 2 19.5194 10.6527 1.76015 
498 1 15.9628 8.88308 3.56484 
502 3 19.542 8.92511 3.57997 
541 2 17.7564 10.6686 3.55719 
107 2 21.286 8.90556 1.79179 
145 3 21.2865 10.6544 0.000693468 
148 2 23.0928 10.6515 1.77932 
506 1 23.0779 8.87157 3.54259 
545 2 21.2952 10.6605 3.55541 
111 3 24.8391 8.89437 1.80264 
152 1 26.617 10.6427 1.75433 
510 3 26.6334 8.89247 3.55134 
549 2 24.8666 10.6588 3.57603 
114 3 30.1269 8.89847 0.0251469 
115 2 28.4062 8.89938 1.76931 
156 2 30.1934 10.649 1.78481 
514 2 30.2057 8.88321 3.55629 
553 3 28.442 10.6304 3.54003 
119 3 31.9775 8.8482 1.73791 
157 1 31.9721 10.6484 0.0222778 
160 2 33.7416 10.6369 1.78293 
518 1 33.762 8.86583 3.56018 
557 3 31.9493 10.559 3.57159 
123 1 0.0156725 12.4095 1.79848 
127 1 3.56628 12.4275 1.79108 
161 1 0.0350264 14.1815 0.00771466 
164 1 1.80874 14.1824 1.78387 
165 1 3.56392 14.1781 0.0256542 
522 3 1.76408 12.4063 3.61926 
561 1 0.00849155 14.1841 3.58181 
565 1 3.58848 14.1778 3.56666 
126 1 5.34736 12.4293 0.0171797 
131 1 7.11024 12.4401 1.79193 
168 3 5.35642 14.2519 1.85242 
169 1 7.09581 14.1852 0.000881604 
526 2 5.3769 12.3687 3.5796 
569 3 7.14288 14.2428 3.55649 
130 2 8.90472 12.4317 0.0164487 
135 3 10.6666 12.5394 1.76391 
172 3 8.92844 14.209 1.74533 
173 2 10.6598 14.2221 0.00954508 
530 1 8.87904 12.4316 3.56176 
573 2 10.6247 14.2133 3.57252 
134 2 12.4003 12.4328 0.00717284 
139 1 14.1883 12.437 1.81086 
176 2 12.405 14.2029 1.79662 
534 1 12.4396 12.4433 3.58071 
577 3 14.239 14.2789 3.6372 
142 2 19.5112 12.4239 0.00627295 
143 3 17.7518 12.419 1.78798 
180 1 15.9305 14.1823 1.77478 
184 2 19.5441 14.2021 1.78211 
538 1 15.9599 12.4479 3.5903 
542 3 19.4851 12.3982 3.54397 
581 3 17.744 14.2273 3.53824 
146 3 23.0657 12.3969 0.0145313 
147 3 21.3031 12.4128 1.82436 
185 3 21.329 14.2217 0.0376073 
188 2 23.0826 14.1722 1.79424 
546 3 23.1162 12.3802 3.5988 
585 1 21.2991 14.1926 3.60619 
151 1 24.8732 12.4227 1.77893 
189 3 24.8214 14.2108 0.0117863 
192 1 26.6369 14.2088 1.79651 
550 3 26.6493 12.413 3.61317 
589 1 24.873 14.2036 3.57784 
155 1 28.3837 12.4252 1.77891 
193 1 28.3868 14.2023 0.00129048 
196 1 30.1717 14.2313 1.77105 
554 3 30.1994 12.4116 3.53386 
593 2 28.4392 14.1937 3.60056 
158 2 33.7217 12.4052 0.0412985 
159 3 31.9662 12.4481 1.81415 
197 2 31.9504 14.2174 0.0033074 
200 2 33.7195 14.192 1.82334 
558 3 33.7174 12.3739 3.55503 
597 3 31.941 14.2524 3.543 
163 1 0.0407327 15.9869 1.78926 
167 3 3.59086 16.0145 1.76747 
202 3 1.80138 19.5024 0.0505634 
203 3 0.044592 19.5003 1.83969 
204 3 1.85393 17.7743 1.87356 
207 2 3.52617 19.486 1.79834 
562 1 1.80224 15.9297 3.58273 
601 3 0.0336656 17.7525 3.6593 
602 2 1.78746 19.5208 3.59469 
605 2 3.5623 17.7176 3.60314 
166 2 5.28817 15.951 0.0103321 
171 1 7.10454 15.9841 1.75378 
206 1 5.28297 19.4793 0.0124399 
208 2 5.27512 17.6792 1.78616 
211 1 7.09217 19.4548 1.79574 
566 2 5.33716 15.9618 3.57164 
606 2 5.30067 19.5035 3.56392 
609 1 7.10248 17.7267 3.56259 
175 3 10.7008 15.8881 1.75734 
210 2 8.92406 19.457 0.0288658 
212 3 8.92418 17.6751 1.78862 
213 3 10.6768 17.7193 0.0423843 
215 1 10.664 19.4868 1.80979 
570 2 8.88949 15.9428 3.5247 
610 1 8.87364 19.4982 3.57301 
613 1 10.6649 17.7332 3.5609 
179 1 14.194 15.9743 1.78689 
214 3 12.4157 19.4711 0.0079775 
216 2 12.4069 17.7243 1.76507 
217 1 14.2164 17.7494 0.0149007 
219 1 14.2241 19.5095 1.79507 
574 1 12.4417 15.9695 3.58277 
614 1 12.4601 19.4959 3.55713 
617 3 14.2353 17.663 3.58452 
182 3 19.5297 15.9341 0.0303905 
183 2 17.7373 15.9277 1.74084 
220 2 15.9949 17.7119 1.78732 
223 1 17.7593 19.5334 1.77052 
224 3 19.5423 17.7203 1.78873 
578 3 16.0353 16.0036 3.54894 
582 1 19.5106 15.9844 3.55878 
618 1 15.9722 19.4983 3.55569 
621 2 17.725 17.7223 3.53878 
622 1 19.5211 19.5512 3.53759 
187 2 21.3297 15.9512 1.80217 
225 3 21.3402 17.6991 0.0736489 
227 3 21.3185 19.5259 1.77386 
228 2 23.0209 17.809 1.77094 
586 2 23.0546 15.9581 3.60175 
625 2 21.3182 17.7746 3.50234 
626 2 23.0879 19.5535 3.5163 
190 1 26.6302 15.9856 0.00703151 
191 1 24.8456 16.0155 1.79084 
229 1 24.8758 17.7752 0.0113015 
230 1 26.6296 19.5622 0.0016325 
231 3 24.8553 19.5248 1.79152 
232 2 26.7128 17.7762 1.7744 
590 1 26.6462 15.9977 3.5691 
629 1 24.8615 17.765 3.5492 
630 1 26.6331 19.5236 3.57953 
195 3 28.4117 16.0273 1.8119 
235 2 28.4247 19.4938 1.78997 
236 3 30.1468 17.7885 1.81203 
594 2 30.1693 16.0185 3.55683 
633 3 28.4298 17.8033 3.62764 
634 3 30.1344 19.5722 3.5747 
198 1 33.7533 15.9828 0.00734616 
199 3 31.9849 16.0191 1.76288 
239 1 31.9713 19.5288 1.776 
240 2 33.793 17.7752 1.81618 
598 3 33.7257 16.0172 3.55697 
637 3 31.9385 17.7588 3.55655 
638 3 33.7562 19.4895 3.57708 
242 1 1.7814 23.0491 0.0138882 
244 2 1.74687 21.2727 1.79694 
245 3 3.50312 21.2493 0.051869 
247 3 3.56888 23.0258 1.84899 
642 1 1.74579 23.1066 3.5678 
645 2 3.56188 21.322 3.51317 
246 3 5.24672 23.0085 0.0188159 
248 2 5.32627 21.2663 1.74131 
251 3 7.0402 23.0047 1.73906 
646 2 5.32123 23.0756 3.5094 
649 1 7.08462 21.2713 3.56178 
250 3 8.90065 22.9561 0.0629549 
252 2 8.88578 21.269 1.78066 
253 1 10.6955 21.2435 0.0326373 
255 3 10.6615 23.0579 1.75301 
650 3 8.85387 23.0486 3.45224 
653 3 10.6402 21.2772 3.5521 
254 2 12.4051 23.0517 0.0504276 
256 1 12.4715 21.2818 1.80573 
257 1 14.2269 21.298 0.0290609 
259 3 14.2426 23.0558 1.76915 
654 1 12.4368 23.0701 3.53864 
657 3 14.2913 21.3642 3.54081 
258 2 16.0113 23.1132 0.0289879 
260 2 15.9804 21.3357 1.82321 
261 2 17.7705 21.3127 0.0286672 
263 2 17.7522 23.0754 1.794 
264 3 19.5352 21.3287 1.72151 
658 1 15.9864 23.1226 3.55572 
661 3 17.7246 21.3392 3.51352 
662 1 19.5304 23.0695 3.56633 
265 2 21.318 21.2868 0.00952262 
267 2 21.3212 23.0659 1.79228 
268 3 23.0603 21.2753 1.76587 
308 2 23.0806 23.0698 0.0161018 
665 1 21.3049 21.2885 3.56574 
708 1 23.0889 23.0629 3.56018 
271 2 24.8689 23.0635 1.79787 
272 3 26.6683 21.2758 1.82606 
669 1 24.8657 21.2952 3.56021 
670 2 26.6452 23.0814 3.55895 
273 2 28.3943 21.3013 0.0235193 
274 3 30.1736 23.0535 0.0639024 
275 1 28.3969 23.0709 1.78376 
276 2 30.1812 21.3051 1.80436 
673 2 28.4 21.2863 3.54768 
674 3 30.1484 23.0533 3.52359 
243 1 35.4853 23.0693 1.78869 
278 2 33.6943 23.078 0.0729096 
279 3 31.9199 23.0741 1.78289 
280 3 33.7611 21.2724 1.80414 
641 1 35.4962 21.3174 3.59699 
677 1 31.9625 21.3062 3.55652 
678 3 33.6895 23.1096 3.54849 
284 3 1.72208 24.8695 1.78074 
285 1 3.53378 24.8075 0.0327196 
287 1 3.52904 26.647 1.78119 
682 1 1.74574 26.6479 3.55004 
685 1 3.52029 24.869 3.55972 
288 3 5.3317 24.8674 1.77319 
289 3 7.04065 24.8832 0.00760339 
291 3 7.05173 26.6917 1.73637 
686 2 5.3317 26.6314 3.54572 
689 1 7.10408 24.8774 3.53168 
290 3 8.94411 26.748 0.0709956 
292 3 8.84742 24.8061 1.70439 
295 2 10.5956 26.6417 1.75367 
690 3 8.8929 26.691 3.44119 
693 1 10.639 24.8485 3.51513 
296 1 12.4607 24.8678 1.77809 
297 1 14.2021 24.8493 0.00818752 
299 3 14.2406 26.6975 1.76896 
694 1 12.4097 26.6553 3.54185 
697 1 14.2042 24.8759 3.53911 
300 2 15.9631 24.8748 1.75982 
301 3 17.7234 24.82 0.0975 
302 3 19.5272 26.6003 0.0130712 
303 2 17.7646 26.662 1.76125 
304 2 19.5628 24.8344 1.74685 
698 3 16.0324 26.6372 3.52285 
701 3 17.7714 24.8668 3.42474 
702 1 19.5525 26.6093 3.53086 
305 3 21.4143 24.8419 0.0527561 
307 2 21.3403 26.5943 1.74545 
666 3 21.289 24.8604 3.54016 
705 2 23.0772 26.5762 3.53768 
706 3 23.1379 24.7882 1.74307 
309 2 24.8275 24.837 0.0302351 
311 1 24.8563 26.6162 1.78125 
312 2 26.6258 24.8549 1.78742 
709 3 24.869 24.843 3.56337 
710 2 26.6257 26.5797 3.54359 
313 1 28.3934 24.8489 0.000840101 
314 1 30.1625 26.5975 0.01809 
315 3 28.3897 26.6244 1.85161 
316 2 30.1764 24.8416 1.79901 
713 3 28.4022 24.8757 3.58368 
714 2 30.175 26.6035 3.53903 
281 3 35.5019 24.8614 0.0129433 
283 2 35.4902 26.6084 1.71135 
318 3 33.6934 26.6338 0.012736 
319 3 31.987 26.6458 1.77345 
320 1 33.7165 24.8493 1.78065 
681 3 35.4709 24.8802 3.5152 
717 1 31.9324 24.8581 3.57066 
718 2 33.7419 26.6135 3.51095 
322 1 1.74824 30.2099 0.00471759 
324 1 1.75638 28.422 1.7767 
327 3 3.46701 30.2473 1.80639 
722 2 1.76293 30.1765 3.54942 
725 2 3.50168 28.4305 3.56634 
328 1 5.27663 28.4378 1.78236 
331 2 7.0836 30.1971 1.78363 
726 2 5.28185 30.192 3.56689 
729 1 7.07462 28.4217 3.55187 
330 2 8.88165 30.1785 0.0110838 
332 3 8.88656 28.5032 1.77254 
335 2 10.6652 30.1986 1.76811 
730 2 8.88831 30.1713 3.52889 
733 2 10.611 28.4306 3.51251 
334 3 12.4101 30.1963 0.0229688 
336 1 12.4309 28.4067 1.76158 
339 2 14.2255 30.1948 1.76204 
734 2 12.4495 30.201 3.54862 
737 1 14.2148 28.4252 3.53673 
340 3 16.0146 28.4495 1.7278 
342 2 19.5626 30.1721 -0.000732387 
343 3 17.8031 30.1681 1.78304 
344 2 19.5769 28.3929 1.75488 
738 3 15.978 30.2437 3.55233 
741 2 17.7841 28.4304 3.53049 
742 3 19.5914 30.1416 3.49628 
347 3 21.3128 30.2024 1.66846 
348 1 23.0843 28.385 1.73786 
745 3 21.3102 28.3209 3.52425 
746 1 23.0496 30.1345 3.52152 
351 2 24.8316 30.1867 1.717 
352 1 26.624 28.4081 1.76289 
749 1 24.8517 28.4025 3.54542 
750 2 26.6373 30.2504 3.55132 
355 1 28.409 30.16 1.76574 
356 1 30.1893 28.4001 1.78165 
753 2 28.4134 28.3721 3.53287 
754 3 30.2062 30.2156 3.53692 
323 2 35.4977 30.1874 1.76739 
359 3 31.9787 30.1563 1.7399 
360 2 33.7105 28.3922 1.74853 
721 1 35.4782 28.4232 3.54223 
757 1 31.9627 28.4117 3.55195 
758 2 33.6957 30.1967 3.51938 
4 1 1.76246 35.4894 1.7898 
362 3 1.77546 33.7491 0.0336457 
364 2 1.78335 31.9536 1.7692 
367 2 3.5715 33.7377 1.75374 
405 1 3.51393 35.4929 3.57961 
762 1 1.75346 33.6983 3.56064 
765 1 3.51611 31.9488 3.56027 
8 3 5.28888 35.4745 1.78623 
366 3 5.31935 33.7256 0.0114742 
368 1 5.29137 31.9308 1.79893 
369 3 7.0873 31.9212 0.0839276 
371 3 7.01875 33.6864 1.85662 
766 2 5.27838 33.7285 3.57901 
769 2 7.07496 31.9788 3.57171 
370 1 8.82716 33.7499 0.018427 
372 1 8.88765 31.9482 1.79814 
373 1 10.6457 31.9941 0.0144687 
375 3 10.6754 33.7738 1.7708 
770 1 8.9095 33.7132 3.55265 
773 3 10.696 31.8768 3.59288 
374 2 12.4694 33.7665 0.00694459 
376 1 12.4207 31.987 1.78846 
379 1 14.2253 33.7528 1.75933 
774 3 12.4511 33.7318 3.57512 
777 2 14.2202 31.97 3.53928 
20 2 15.989 35.5019 1.73386 
380 3 15.9991 31.9627 1.75423 
383 3 17.803 33.7313 1.72865 
384 2 19.562 31.9777 1.76816 
421 1 17.7893 35.4896 3.532 
778 1 16.0059 33.7397 3.53571 
781 1 17.7972 31.9794 3.55169 
782 3 19.5682 33.7694 3.55625 
387 1 21.3249 33.7727 1.73983 
388 2 23.0864 31.952 1.7528 
785 3 21.3305 31.9587 3.51632 
786 1 23.0816 33.7709 3.51981 
391 2 24.8351 33.7236 1.73416 
392 1 26.6082 31.9558 1.77017 
789 3 24.7994 31.9362 3.55881 
790 3 26.6032 33.7047 3.45731 
36 2 30.1942 35.4977 1.77297 
394 3 30.1158 33.7847 0.0272711 
395 2 28.4157 33.6964 1.75008 
396 2 30.1824 31.9002 1.73742 
433 1 28.403 35.4769 3.51832 
793 3 28.4343 31.9482 3.51448 
794 1 30.1683 33.6919 3.51427 
37 1 31.9574 35.4958 0.00824029 
363 2 35.4799 33.7287 1.79578 
398 1 33.7245 33.751 0.00494562 
399 1 31.9609 33.704 1.75438 
400 1 33.7383 31.9564 1.77679 
401 1 35.4848 35.4864 3.58507 
437 1 31.9433 35.4895 3.53406 
761 1 35.4788 31.9286 3.55719 
797 2 31.9227 31.8909 3.49244 
798 3 33.6882 33.6827 3.54884 
403 3 0.0234982 1.7705 5.36009 
407 1 3.5169 1.76795 5.34731 
444 2 1.77789 3.53794 5.37249 
802 3 1.76788 1.81437 7.19197 
845 3 3.51844 3.54182 7.13342 
411 1 7.08972 1.77354 5.33678 
448 1 5.313 3.55163 5.34981 
806 2 5.3071 1.781 7.12088 
849 3 7.11722 3.55203 7.12748 
415 3 10.6047 1.78201 5.29514 
452 2 8.86364 3.54159 5.29257 
810 1 8.86898 1.76567 7.09238 
813 1 10.6624 0.0062978 7.08976 
853 2 10.6351 3.57261 7.0693 
419 3 14.3077 1.80674 5.32342 
456 1 12.4453 3.54212 5.30803 
814 1 12.4366 1.782 7.07538 
817 1 14.2188 0.00249792 7.09809 
857 2 14.2215 3.54023 7.05199 
420 2 15.9855 0.0315093 5.32064 
423 3 17.7441 1.73278 5.2977 
424 2 19.5712 0.0417277 5.30278 
460 3 15.999 3.57113 5.29576 
464 3 19.5481 3.53408 5.32916 
818 3 16.0103 1.77813 7.1316 
821 2 17.7784 0.0476194 7.09247 
822 3 19.5427 1.72284 7.03677 
861 1 17.7693 3.55946 7.08799 
427 2 21.3517 1.8014 5.30803 
428 3 23.1163 0.107748 5.32627 
468 3 23.129 3.53687 5.28428 
826 2 23.1236 1.77513 7.05297 
865 1 21.3374 3.57085 7.07667 
431 3 24.8963 1.8439 5.30256 
432 1 26.631 0.00972152 5.30012 
472 3 26.6999 3.64937 5.29373 
829 3 24.8895 0.0497518 7.08681 
830 3 26.6818 1.84713 7.11081 
869 1 24.8806 3.57386 7.08377 
435 1 28.4088 1.76279 5.30149 
476 3 30.1351 3.59118 5.32558 
834 2 30.173 1.74274 7.03046 
873 2 28.4291 3.54858 7.073 
439 3 31.8796 1.78741 5.31356 
440 3 33.6691 0.0109072 5.27624 
480 2 33.686 3.53186 5.31529 
838 1 33.7194 1.76681 7.10414 
841 1 35.4847 3.56922 7.10933 
877 1 31.9235 3.55768 7.09765 
443 2 0.00181235 5.37171 5.38203 
447 1 3.53914 5.32784 5.35775 
484 2 1.79068 7.12329 5.34475 
842 2 1.77089 5.29062 7.15162 
885 1 3.55497 7.08254 7.11941 
451 1 7.09553 5.3203 5.34956 
488 3 5.28586 7.13071 5.301 
846 3 5.3226 5.2937 7.10803 
889 1 7.08611 7.07646 7.12272 
455 2 10.6507 5.32803 5.33516 
492 1 8.88258 7.11201 5.35675 
850 2 8.90551 5.32046 7.11922 
893 1 10.6586 7.12292 7.11302 
459 1 14.1924 5.33246 5.3097 
496 1 12.4409 7.09263 5.33598 
854 3 12.3903 5.30717 7.08298 
897 2 14.168 7.0782 7.1647 
463 3 17.7343 5.35993 5.34473 
500 1 15.9454 7.12718 5.35131 
504 1 19.5309 7.12162 5.32024 
858 1 15.9457 5.34066 7.10849 
862 3 19.5177 5.36449 7.09048 
901 2 17.7655 7.09584 7.11934 
467 1 21.327 5.33997 5.30975 
508 3 23.0878 7.1548 5.27493 
866 1 23.0861 5.36147 7.1112 
905 1 21.3274 7.12558 7.10067 
471 1 24.855 5.34828 5.30951 
512 2 26.6279 7.13366 5.31389 
870 2 26.6513 5.32966 7.07103 
909 1 24.862 7.12314 7.09624 
475 2 28.4069 5.32363 5.32011 
516 3 30.0956 7.11121 5.34703 
874 2 30.1853 5.36906 7.07796 
913 2 28.4178 7.10194 7.09529 
479 1 31.9503 5.36402 5.31822 
520 3 33.8775 7.1074 5.30091 
878 1 33.6978 5.33463 7.10306 
881 2 35.4827 7.07747 7.17763 
917 3 31.898 7.08892 7.11251 
483 2 0.0164472 8.85613 5.38957 
487 3 3.43004 8.83238 5.30114 
524 2 1.80522 10.6339 5.36972 
882 1 1.76984 8.86235 7.14253 
921 2 0.0223042 10.6521 7.12544 
925 3 3.57552 10.6205 7.11303 
491 1 7.11375 8.86755 5.33431 
528 3 5.33234 10.6272 5.2585 
886 1 5.3082 8.86701 7.08047 
929 1 7.09511 10.6265 7.11908 
495 3 10.688 8.82534 5.20995 
532 1 8.90025 10.6036 5.35237 
890 3 8.89867 8.82977 7.21054 
933 3 10.6436 10.5652 7.1667 
499 2 14.1572 8.85757 5.33436 
536 1 12.4144 10.6377 5.35101 
894 1 12.4033 8.87381 7.11921 
937 1 14.1905 10.6328 7.1124 
503 1 17.7313 8.88419 5.34558 
540 1 15.9501 10.6486 5.37997 
544 2 19.5149 10.6608 5.32349 
898 2 15.9785 8.83847 7.16103 
902 3 19.4898 8.89228 7.05946 
941 1 17.7507 10.6369 7.1293 
507 2 21.3053 8.88847 5.31513 
548 2 23.0963 10.6316 5.3559 
906 2 23.1001 8.87641 7.09823 
945 1 21.2924 10.6356 7.11556 
511 3 24.8368 8.90509 5.33586 
552 1 26.637 10.6389 5.33325 
910 3 26.6597 8.85102 7.05734 
949 2 24.8634 10.6479 7.12057 
515 2 28.4147 8.89574 5.32086 
556 3 30.2162 10.5987 5.34639 
914 1 30.1791 8.86346 7.12858 
953 2 28.4102 10.6366 7.10551 
519 2 31.9783 8.82022 5.36394 
560 1 33.7442 10.6211 5.36 
918 1 33.723 8.83685 7.15572 
957 2 31.9539 10.6175 7.12925 
523 3 0.0125387 12.3826 5.39126 
527 1 3.56214 12.4033 5.35345 
564 2 1.78239 14.1652 5.36882 
922 3 1.7734 12.4175 7.09985 
965 3 3.57776 14.2054 7.1233 
531 1 7.12478 12.3952 5.32776 
568 1 5.36657 14.1688 5.33005 
926 1 5.33094 12.3776 7.13964 
969 1 7.1334 14.1796 7.11621 
535 1 10.6557 12.4127 5.36645 
572 3 8.87872 14.2265 5.32105 
930 1 8.90878 12.4195 7.11473 
973 3 10.6349 14.2532 7.10722 
539 1 14.1985 12.4385 5.37781 
576 1 12.4185 14.1906 5.36684 
934 3 12.3337 12.4177 7.17574 
977 1 14.1831 14.1861 7.13608 
543 1 17.7346 12.4368 5.36262 
580 3 16.0065 14.2614 5.40417 
584 3 19.4561 14.2401 5.3468 
938 2 16.0051 12.4808 7.15172 
942 1 19.5354 12.4334 7.10658 
981 3 17.7358 14.2321 7.16581 
547 3 21.339 12.3246 5.29514 
588 3 23.0896 14.152 5.35394 
946 1 23.0759 12.4225 7.12885 
985 3 21.2856 14.211 7.00904 
551 2 24.8715 12.4322 5.37568 
592 3 26.6778 14.1686 5.36149 
950 3 26.6495 12.3953 7.12327 
989 3 24.9082 14.1822 7.14004 
555 3 28.4559 12.4221 5.35618 
596 3 30.1787 14.2167 5.37054 
954 2 30.1622 12.4214 7.09555 
993 2 28.3697 14.1767 7.12888 
559 1 31.9687 12.3991 5.34177 
600 1 33.7256 14.1928 5.34686 
958 2 33.7396 12.4098 7.1133 
961 1 35.4857 14.1844 7.14586 
997 3 31.9409 14.1461 7.17186 
567 3 3.59112 15.9297 5.38526 
603 2 0.00187516 19.5074 5.37081 
604 1 1.82074 17.7382 5.371 
607 3 3.6114 19.6153 5.20249 
962 1 1.77953 15.9487 7.13877 
1002 3 1.89682 19.55 7.10438 
1005 3 3.57003 17.7462 7.13444 
571 1 7.12486 15.9754 5.35244 
608 3 5.3247 17.763 5.32733 
611 2 7.06136 19.4978 5.36261 
966 1 5.36869 15.9582 7.11567 
1006 3 5.31301 19.546 7.12922 
1009 3 7.13597 17.7735 7.17838 
575 1 10.6459 15.9845 5.34857 
612 1 8.87119 17.7508 5.3418 
615 2 10.6641 19.5178 5.34499 
970 2 8.89183 15.9901 7.12391 
1010 2 8.88304 19.5068 7.12034 
1013 3 10.6009 17.792 7.09866 
579 3 14.2011 16.0135 5.41492 
616 2 12.4371 17.7318 5.36173 
619 1 14.2013 19.5187 5.33037 
974 2 12.3937 15.9755 7.11541 
1014 1 12.4101 19.5171 7.11002 
1017 2 14.218 17.7496 7.11178 
583 2 17.7299 15.9802 5.36045 
620 2 15.9692 17.7299 5.35066 
623 1 17.7512 19.5452 5.30722 
624 1 19.5325 17.7612 5.3131 
978 2 15.9877 15.9828 7.12074 
982 1 19.5558 15.9965 7.10626 
1018 3 15.9684 19.5354 7.10367 
1021 3 17.7344 17.7389 7.08656 
1022 1 19.526 19.5206 7.09683 
587 3 21.3349 16.0443 5.28692 
627 1 21.3243 19.5185 5.33036 
628 1 23.08 17.7696 5.33937 
986 1 23.0624 15.9781 7.09709 
1025 2 21.2827 17.7802 7.15003 
1026 2 23.016 19.6056 7.14884 
591 1 24.8539 15.9692 5.35268 
631 1 24.8353 19.5341 5.35516 
632 2 26.6376 17.7462 5.345 
990 2 26.5764 15.8693 7.13182 
1029 1 24.8581 17.7511 7.12332 
1030 1 26.6185 19.544 7.11857 
595 1 28.3833 15.9863 5.36393 
635 2 28.396 19.5342 5.34842 
636 1 30.1701 17.7761 5.38037 
994 1 30.1542 15.9726 7.17158 
1033 1 28.3604 17.775 7.1324 
1034 2 30.1825 19.5517 7.1642 
563 3 35.493 15.9868 5.38121 
599 3 31.9178 15.9638 5.35249 
639 2 31.9444 19.5262 5.31249 
640 1 33.6995 17.7485 5.38883 
998 2 33.6431 15.9693 7.13339 
1001 3 35.4986 17.7398 7.10234 
1037 3 31.9227 17.8098 7.15464 
1038 3 33.6132 19.5609 7.13095 
644 3 1.81114 21.3 5.3186 
647 2 3.5409 23.0468 5.32273 
1042 1 1.73764 23.0864 7.11446 
1045 2 3.55835 21.2961 7.1242 
648 2 5.28411 21.2686 5.34695 
651 1 7.08994 23.0818 5.31342 
1046 3 5.27521 23.0627 7.08963 
1049 1 7.10489 21.3142 7.08105 
652 1 8.88807 21.3058 5.29267 
655 3 10.6839 23.0642 5.29783 
1050 1 8.9003 23.1049 7.04833 
1053 1 10.6521 21.3132 7.07592 
656 1 12.4425 21.2979 5.29627 
659 2 14.204 23.0824 5.34161 
1054 3 12.4477 23.0892 7.06577 
1057 2 14.2091 21.3121 7.12243 
660 3 15.9615 21.3166 5.30295 
663 3 17.7563 23.0938 5.34282 
664 3 19.5613 21.3196 5.37177 
1058 1 15.9739 23.0859 7.08985 
1061 1 17.7634 21.3124 7.08924 
1062 2 19.5489 23.0742 7.10283 
667 1 21.32 23.0997 5.3351 
668 3 23.052 21.2957 5.37018 
1065 3 21.2804 21.292 7.11088 
1066 3 23.0363 23.0589 7.10556 
671 1 24.8608 23.0661 5.35482 
672 2 26.632 21.314 5.34735 
1069 1 24.841 21.3245 7.11307 
1070 3 26.7088 23.0674 7.13569 
675 1 28.4123 23.0515 5.33574 
676 1 30.1778 21.3072 5.35069 
1073 2 28.4047 21.2973 7.14172 
1074 3 30.1914 23.0207 7.13639 
643 1 35.4811 23.1126 5.36087 
679 2 31.9211 23.1043 5.3158 
680 1 33.7243 21.3157 5.34188 
1041 3 35.5011 21.2386 7.0976 
1077 2 31.9472 21.2918 7.13002 
1078 1 33.7214 23.0882 7.12636 
684 1 1.73746 24.8841 5.34233 
687 2 3.52443 26.6812 5.35928 
1082 3 1.74523 26.6814 7.09765 
1085 1 3.52535 24.8596 7.08544 
688 1 5.2961 24.8436 5.31385 
691 3 7.08475 26.6226 5.35486 
1086 3 5.3613 26.6227 7.09269 
1089 2 7.05491 24.9065 7.04543 
692 1 8.88425 24.8544 5.26987 
695 1 10.6371 26.6518 5.2948 
1090 2 8.79556 26.6478 7.02994 
1093 1 10.658 24.8704 7.07206 
696 2 12.4101 24.835 5.32641 
699 1 14.2095 26.6549 5.30475 
1094 3 12.4539 26.6368 7.04647 
1097 3 14.1394 24.8548 7.06465 
700 1 16.0048 24.8893 5.32528 
703 3 17.7764 26.7023 5.26307 
704 2 19.4657 24.8353 5.34899 
1098 3 16.0117 26.657 7.11183 
1101 3 17.8353 24.8139 7.17502 
1144 2 19.4503 26.5923 7.09944 
707 1 21.3121 26.5942 5.33873 
711 2 23.136 24.8457 5.29905 
1102 1 21.3048 24.8523 7.12548 
1106 2 23.1214 26.5982 7.08614 
712 2 26.6468 24.8391 5.35886 
1108 1 24.8569 24.8276 7.12217 
1109 3 24.8824 26.5831 5.3398 
1110 2 26.6665 26.5847 7.13462 
715 2 28.4022 26.5727 5.29553 
716 3 30.1455 24.8759 5.34325 
1113 2 28.4305 24.83 7.09879 
1114 2 30.1415 26.6149 7.12072 
683 1 35.4924 26.6463 5.31869 
719 1 31.9584 26.6384 5.34768 
720 1 33.7276 24.8718 5.33773 
1081 3 35.4875 24.9228 7.18689 
1117 1 31.9471 24.8463 7.12133 
1118 2 33.7962 26.577 7.15698 
723 2 0.0315198 30.1555 5.31672 
724 3 1.77152 28.4612 5.29069 
727 1 3.53459 30.1875 5.32422 
1121 2 0.0669771 28.367 7.09987 
1122 1 1.76725 30.1556 7.09201 
1125 2 3.53494 28.392 7.0987 
728 1 5.30803 28.3982 5.33524 
731 1 7.09199 30.183 5.32582 
1126 2 5.34601 30.1783 7.07165 
1129 3 7.07208 28.3343 7.11111 
732 1 8.86911 28.4036 5.29496 
735 2 10.6833 30.2033 5.27964 
1130 1 8.8716 30.1646 7.08015 
1133 1 10.6424 28.4033 7.07874 
736 2 12.4399 28.4399 5.31274 
739 3 14.1809 30.1961 5.31539 
1134 1 12.4139 30.186 7.09229 
1137 2 14.2247 28.4066 7.07361 
740 3 16.0112 28.4413 5.31997 
743 2 17.7851 30.1888 5.30379 
744 2 19.5465 28.4179 5.31229 
1138 1 15.9944 30.2035 7.09818 
1141 1 17.7839 28.4245 7.11382 
1142 3 19.5425 30.2073 7.09992 
747 3 21.3148 30.1389 5.34985 
748 1 21.3096 28.3744 7.10937 
1145 1 23.0861 28.3654 5.33436 
1146 2 23.093 30.1915 7.10255 
751 2 24.8506 30.1736 5.33679 
752 1 26.6237 28.3767 5.28674 
1149 2 24.8713 28.3795 7.08091 
1150 1 26.6816 30.1198 7.07271 
755 1 28.4222 30.1747 5.29288 
756 2 30.1556 28.3778 5.32314 
1153 3 28.4442 28.2637 6.94844 
1154 1 30.173 30.1485 7.10358 
759 1 31.962 30.1762 5.32405 
760 1 33.7427 28.4064 5.33888 
1157 1 31.9637 28.3997 7.10952 
1158 1 33.7348 30.1668 7.09031 
404 3 1.77936 35.4825 5.36328 
764 2 1.77743 31.9313 5.33003 
767 3 3.51054 33.6862 5.34733 
805 1 3.53971 35.4966 7.12339 
1162 1 1.76633 33.6913 7.10173 
1165 2 3.57405 31.9612 7.05388 
408 3 5.30384 35.4782 5.33723 
768 3 5.30989 31.9634 5.32277 
771 3 7.09181 33.6921 5.25752 
809 1 7.08909 35.4711 7.10748 
1166 1 5.32988 33.7246 7.10311 
1169 3 7.07918 31.968 7.08869 
412 3 8.84491 35.4805 5.31603 
772 1 8.87856 31.9379 5.32682 
775 1 10.6627 33.7347 5.32563 
1170 3 8.89675 33.7096 7.10294 
1173 2 10.6422 31.9738 7.10284 
416 3 12.4818 35.4971 5.31213 
776 2 12.4403 31.963 5.29709 
779 1 14.2275 33.7242 5.33992 
1174 2 12.4123 33.7071 7.09323 
1177 2 14.2107 31.9367 7.06593 
780 3 15.9955 31.9623 5.34267 
783 2 17.7784 33.7465 5.33093 
784 1 19.5716 31.9572 5.31641 
1178 2 16.0235 33.7276 7.07124 
1181 3 17.763 32.0016 7.06143 
1182 1 19.5498 33.7376 7.09098 
787 1 21.3505 33.7443 5.31691 
788 2 23.1053 31.9398 5.27814 
825 1 21.3413 35.4959 7.0849 
1185 1 21.3346 31.952 7.08968 
1186 3 23.1422 33.6947 7.11315 
791 1 24.8452 33.7648 5.28704 
792 3 26.5842 31.937 5.30211 
1189 3 24.8259 31.8538 7.03838 
1190 3 26.5652 33.6799 7.11079 
436 3 30.1874 35.4374 5.31513 
795 3 28.3885 33.7049 5.31787 
796 1 30.1939 31.9479 5.32816 
833 3 28.3917 35.4781 7.09039 
1193 3 28.4153 31.9832 7.12943 
1194 1 30.1958 33.7312 7.11174 
763 1 35.4919 33.709 5.32904 
799 2 31.9579 33.7266 5.29389 
800 1 33.7123 31.9456 5.31646 
801 1 35.4783 35.483 7.10045 
837 1 31.9583 35.501 7.10716 
1161 2 35.495 31.9498 7.11149 
1197 2 31.9158 31.9238 7.17096 
1198 1 33.7007 33.7058 7.08577 
803 3 0.00749511 1.78018 8.89727 
807 2 3.53955 1.78897 8.87989 
844 2 1.75896 3.57439 8.92027 
1202 3 1.79931 1.77303 10.5815 
1205 2 3.52435 0.00527604 10.6322 
1241 2 0.00157803 3.50777 10.6573 
1245 2 3.54297 3.54783 10.6401 
808 3 5.32864 0.0259794 8.91133 
811 2 7.09526 1.74511 8.87513 
848 1 5.34842 3.55086 8.86393 
1206 2 5.32177 1.75999 10.6433 
1209 2 7.12321 0.000584627 10.6579 
1249 2 7.11894 3.51534 10.6324 
815 1 10.6553 1.78425 8.85252 
852 1 8.88666 3.55877 8.8587 
1210 1 8.88893 1.76876 10.619 
1253 2 10.6613 3.56587 10.6138 
819 1 14.2078 1.79572 8.8609 
856 2 12.4356 3.63249 8.80884 
1214 1 12.4037 1.76963 10.626 
1257 2 14.2068 3.54561 10.6538 
820 2 16.0218 0.00666771 8.85551 
823 3 17.7692 1.76478 8.83338 
824 2 19.5356 0.0094832 8.87783 
860 2 15.9843 3.55346 8.83144 
864 2 19.564 3.55289 8.80128 
1218 1 15.9987 1.75713 10.6049 
1222 1 19.5647 1.78558 10.611 
1261 1 17.7685 3.55631 10.5947 
827 1 21.3172 1.76906 8.84547 
828 1 23.0875 0.00883465 8.86695 
868 3 23.0575 3.51947 8.86375 
1226 3 23.0733 1.79131 10.6425 
1265 2 21.3471 3.54084 10.5904 
831 1 24.8533 1.79692 8.8722 
832 1 26.6438 0.0340086 8.8938 
872 2 26.6582 3.5555 8.88827 
1229 2 24.8766 0.0388935 10.6624 
1230 2 26.6531 1.80021 10.6872 
1269 1 24.8448 3.56608 10.6438 
835 1 28.4502 1.78206 8.88254 
876 1 30.2142 3.57311 8.87997 
1234 1 30.1936 1.78418 10.6807 
1273 3 28.3774 3.56363 10.6494 
839 1 31.9853 1.77136 8.89843 
880 1 33.7177 3.56239 8.90722 
1237 1 31.9893 0.0105626 10.6831 
1238 3 33.7945 1.76772 10.669 
1277 1 31.9662 3.5865 10.6926 
847 1 3.56459 5.3248 8.89907 
884 1 1.77507 7.07098 8.91181 
1242 3 1.74447 5.28768 10.6739 
1285 1 3.54575 7.08888 10.6789 
851 1 7.11804 5.3225 8.87567 
888 1 5.33388 7.11755 8.89715 
1246 1 5.34126 5.34847 10.6521 
1289 2 7.10676 7.13212 10.6631 
855 3 10.6768 5.2781 8.80827 
892 2 8.90586 7.11993 8.87142 
1250 1 8.88951 5.31422 10.6289 
1293 1 10.6519 7.07258 10.6493 
859 3 14.1668 5.30217 8.84912 