ITEM: TIMESTEP
1000
ITEM: NUMBER OF ATOMS
3999
ITEM: BOX BOUNDS pp pp pp
0.0000000000000000e+00 3.5503000000000000e+01
0.0000000000000000e+00 3.5503000000000000e+01
0.0000000000000000e+00 3.5503000000000000e+01
ITEM: ATOMS id type x y z 
7 3 3.52049 1.7371 1.75702 
44 1 1.77436 3.56157 1.79372 
45 1 3.52958 3.5806 0.0121564 
402 1 1.75506 1.79096 3.57928 
445 3 3.52584 3.59167 3.55489 
6 3 5.27479 1.78067 0.0428212 
9 3 7.03996 0.0674935 0.0133389 
11 2 7.09027 1.79052 1.78064 
48 1 5.29668 3.57118 1.8088 
49 1 7.1019 3.56368 0.0102024 
406 1 5.29767 1.78696 3.56081 
409 1 7.0816 0.00980481 3.55315 
449 3 7.12672 3.5759 3.54738 
10 3 8.91961 1.792 0.00614692 
12 1 8.86164 0.00063516 1.77905 
13 3 10.6914 0.0206575 0.0227771 
15 2 10.6312 1.76838 1.77487 
52 1 8.88874 3.58543 1.79192 
410 3 8.89698 1.77022 3.55442 
413 2 10.6755 0.000679455 3.57317 
453 1 10.6675 3.57636 3.54492 
14 1 12.4294 1.80807 0.00739174 
16 1 12.4465 0.0171191 1.78765 
19 2 14.2373 1.784 1.80115 
56 1 12.442 3.57713 1.76495 
57 2 14.223 3.52726 0.00111879 
414 1 12.4493 1.77862 3.55613 
417 3 14.2414 0.0013405 3.55915 
457 3 14.258 3.58826 3.4785 
23 2 17.7603 1.79973 1.77816 
24 1 19.5665 0.0291403 1.7487 
60 2 15.9941 3.57948 1.80906 
61 3 17.7191 3.50121 0.0224394 
64 3 19.4971 3.56232 1.74123 
418 3 16.0403 1.75595 3.481 
422 1 19.5608 1.79928 3.52812 
461 2 17.7434 3.5783 3.56744 
27 1 21.3153 1.8068 1.72225 
28 1 23.083 0.0364241 1.7364 
68 1 23.0935 3.5943 1.74628 
425 3 21.3402 0.0238694 3.59137 
426 1 23.1048 1.81735 3.5046 
465 1 21.3209 3.58244 3.51739 
30 3 26.6478 1.75044 0.0098687 
31 2 24.9102 1.81583 1.72668 
32 1 26.6242 0.00227008 1.7383 
72 2 26.6558 3.57899 1.73535 
429 1 24.8583 0.041252 3.50565 
430 1 26.6415 1.81976 3.52537 
469 2 24.8776 3.56525 3.57834 
35 1 28.4057 1.76698 1.75074 
76 1 30.1828 3.5604 1.766 
434 3 30.163 1.7447 3.53014 
473 2 28.4501 3.56422 3.54622 
1 1 35.4909 0.00800545 0.00867913 
3 2 35.4718 1.77413 1.77867 
38 3 33.7256 1.77117 0.0505937 
39 2 31.9647 1.81261 1.80839 
40 3 33.727 0.0448914 1.84102 
80 1 33.7349 3.56566 1.78701 
438 3 33.7387 1.80537 3.6069 
441 1 35.5009 3.56934 3.59104 
477 3 31.9242 3.56355 3.58199 
42 2 1.77456 5.35916 0.0142535 
43 1 0.0269582 5.36233 1.79118 
47 3 3.49979 5.42116 1.82868 
84 3 1.78602 7.17064 1.83693 
442 1 1.76723 5.33809 3.58527 
481 2 0.0462279 7.12918 3.57487 
485 2 3.56789 7.09769 3.58523 
46 1 5.31192 5.32367 0.00468909 
51 3 7.08301 5.32546 1.80852 
88 1 5.33153 7.09683 1.77883 
89 3 7.12239 7.16526 0.0056372 
446 2 5.32157 5.32835 3.5734 
489 1 7.10991 7.0969 3.56056 
50 1 8.88372 5.33405 0.0189431 
55 3 10.7063 5.33974 1.80137 
92 1 8.89397 7.07196 1.78102 
450 3 8.91682 5.34775 3.60782 
493 2 10.6527 7.11434 3.55869 
59 2 14.2172 5.3387 1.78444 
96 1 12.4485 7.10269 1.76343 
454 2 12.4328 5.35081 3.53377 
497 2 14.2041 7.11344 3.53809 
63 1 17.7424 5.37124 1.75855 
100 1 15.9768 7.15128 1.75289 
104 1 19.5019 7.13017 1.78358 
458 3 15.9356 5.38939 3.51793 
462 3 19.5114 5.29371 3.54971 
501 3 17.7464 7.12351 3.57189 
67 1 21.3007 5.32982 1.74499 
108 1 23.083 7.10221 1.77666 
466 2 23.0853 5.35358 3.57299 
505 2 21.2646 7.11117 3.55395 
70 3 26.6992 5.33675 0.037403 
71 1 24.8567 5.3397 1.7634 
112 1 26.6129 7.11372 1.76834 
470 2 26.6416 5.31689 3.55217 
509 2 24.8671 7.12946 3.56953 
75 2 28.4196 5.32551 1.77373 
113 3 28.4317 7.09295 0.00830581 
116 1 30.1911 7.12072 1.78087 
474 3 30.1448 5.38486 3.54907 
513 1 28.3738 7.1274 3.53897 
78 1 33.755 5.35212 0.0167241 
79 3 31.9445 5.34372 1.7763 
120 1 33.7594 7.11855 1.78736 
478 1 33.7334 5.34327 3.56798 
517 2 31.947 7.1183 3.58003 
82 1 1.78442 8.89306 0.0108238 
83 2 0.0183927 8.89082 1.76322 
87 2 3.55423 8.83706 1.8139 
124 1 1.78795 10.6545 1.78915 
125 1 3.56588 10.6236 0.0110921 
482 2 1.80321 8.87138 3.58885 
521 1 0.0253784 10.6417 3.57968 
525 1 3.56226 10.6426 3.56 
91 2 7.12835 8.8544 1.79574 
128 1 5.34214 10.6271 1.79099 
486 3 5.31196 8.86609 3.56118 
529 3 7.12848 10.56 3.53598 
90 3 8.89836 8.86989 0.0301952 
95 2 10.6511 8.87157 1.80461 
132 1 8.90417 10.672 1.77544 
133 3 10.6371 10.652 0.00489411 
490 3 8.922 8.86862 3.51965 
533 1 10.6687 10.6453 3.55109 
94 1 12.4143 8.89798 0.0149424 
99 2 14.1859 8.88959 1.79189 
136 1 12.4088 10.6693 1.79598 
137 1 14.1805 10.6775 0.0177008 
494 3 12.4637 8.79459 3.55558 
537 1 14.1901 10.6289 3.57721 
98 1 15.951 8.90696 0.00138524 
103 3 17.7556 8.93402 1.81115 
140 2 15.9869 10.6659 1.78723 
144 2 19.5194 10.6527 1.76012 
498 1 15.9628 8.88309 3.56482 
502 3 19.542 8.92512 3.57994 
541 2 17.7564 10.6686 3.55717 
107 2 21.286 8.90557 1.79177 
145 3 21.2865 10.6545 0.000645475 
148 2 23.0927 10.6515 1.77929 
506 1 23.0778 8.87158 3.54257 
545 2 21.2952 10.6605 3.55539 
111 3 24.8391 8.89438 1.80262 
152 1 26.617 10.6427 1.75431 
510 3 26.6334 8.89248 3.55133 
549 2 24.8666 10.6588 3.57601 
114 3 30.1269 8.89847 0.0251368 
115 2 28.4062 8.89938 1.7693 
156 2 30.1934 10.649 1.7848 
514 2 30.2057 8.88322 3.55628 
553 3 28.442 10.6304 3.54002 
119 3 31.9775 8.8482 1.7379 
157 1 31.9721 10.6484 0.0222702 
160 2 33.7416 10.6369 1.78292 
518 1 33.762 8.86583 3.56017 
557 3 31.9493 10.559 3.57158 
123 1 0.0156693 12.4095 1.79847 
127 1 3.56628 12.4275 1.79106 
161 1 0.0350276 14.1815 0.007701 
164 1 1.80874 14.1824 1.78386 
165 1 3.56393 14.1781 0.0256368 
522 3 1.76407 12.4063 3.61924 
561 1 0.00848134 14.1841 3.58179 
565 1 3.58848 14.1778 3.56664 
126 1 5.34737 12.4293 0.0171573 
131 1 7.11025 12.4401 1.79191 
168 3 5.35643 14.2519 1.8524 
169 1 7.09584 14.1852 0.000838994 
526 2 5.37691 12.3687 3.57958 
569 3 7.14288 14.2428 3.55647 
130 2 8.90475 12.4317 0.0164074 
135 3 10.6666 12.5395 1.76387 
172 3 8.92846 14.209 1.74529 
173 2 10.6599 14.2222 0.00945404 
530 1 8.87904 12.4316 3.56173 
573 2 10.6247 14.2133 3.57248 
134 2 12.4004 12.4328 0.00711311 
139 1 14.1883 12.4371 1.81082 
176 2 12.405 14.203 1.79657 
534 1 12.4396 12.4433 3.58068 
577 3 14.239 14.2789 3.63718 
142 2 19.5112 12.4239 0.00621557 
143 3 17.7518 12.419 1.78794 
180 1 15.9305 14.1824 1.77472 
184 2 19.544 14.2021 1.78206 
538 1 15.9599 12.4479 3.59027 
542 3 19.4851 12.3983 3.54394 
581 3 17.744 14.2273 3.53821 
146 3 23.0656 12.397 0.014482 
147 3 21.3031 12.4129 1.8243 
185 3 21.3289 14.2217 0.0375319 
188 2 23.0826 14.1722 1.79421 
546 3 23.1162 12.3802 3.59878 
585 1 21.2991 14.1927 3.60617 
151 1 24.8731 12.4227 1.7789 
189 3 24.8214 14.2108 0.0117418 
192 1 26.6369 14.2089 1.79648 
550 3 26.6493 12.413 3.61315 
589 1 24.873 14.2036 3.57782 
155 1 28.3837 12.4252 1.77889 
193 1 28.3868 14.2023 0.00127033 
196 1 30.1717 14.2313 1.77103 
554 3 30.1993 12.4116 3.53385 
593 2 28.4392 14.1937 3.60055 
158 2 33.7217 12.4052 0.0412895 
159 3 31.9662 12.4481 1.81414 
197 2 31.9504 14.2174 0.00329718 
200 2 33.7195 14.192 1.82332 
558 3 33.7174 12.3739 3.55501 
597 3 31.941 14.2524 3.54299 
163 1 0.0407277 15.9869 1.78924 
167 3 3.59086 16.0145 1.76745 
202 3 1.80139 19.5024 0.0505459 
203 3 0.0445867 19.5003 1.83967 
204 3 1.85393 17.7743 1.87353 
207 2 3.52617 19.486 1.79832 
562 1 1.80223 15.9297 3.58271 
601 3 0.0336509 17.7525 3.65927 
602 2 1.78745 19.5208 3.59466 
605 2 3.56229 17.7176 3.60311 
166 2 5.28819 15.951 0.0102986 
171 1 7.10455 15.9841 1.75374 
206 1 5.28299 19.4793 0.0124059 
208 2 5.27513 17.6792 1.78613 
211 1 7.09217 19.4547 1.79571 
566 2 5.33716 15.9618 3.57161 
606 2 5.30067 19.5035 3.56389 
609 1 7.10248 17.7266 3.56255 
175 3 10.7008 15.8881 1.75729 
210 2 8.92407 19.457 0.0288234 
212 3 8.9242 17.6751 1.78858 
213 3 10.6768 17.7192 0.0423262 
215 1 10.664 19.4868 1.80976 
570 2 8.88949 15.9428 3.52466 
610 1 8.87364 19.4982 3.57296 
613 1 10.6649 17.7331 3.56086 
179 1 14.1941 15.9743 1.78684 
214 3 12.4157 19.4711 0.00795474 
216 2 12.4069 17.7243 1.76502 
217 1 14.2165 17.7494 0.0148267 
219 1 14.2241 19.5095 1.79504 
574 1 12.4417 15.9695 3.58273 
614 1 12.4601 19.4959 3.55709 
617 3 14.2353 17.663 3.58448 
182 3 19.5296 15.9341 0.0302873 
183 2 17.7373 15.9278 1.74079 
220 2 15.9949 17.7119 1.78728 
223 1 17.7593 19.5334 1.77048 
224 3 19.5423 17.7203 1.7887 
578 3 16.0354 16.0036 3.54891 
582 1 19.5106 15.9844 3.55875 
618 1 15.9722 19.4983 3.55566 
621 2 17.725 17.7223 3.53874 
622 1 19.5211 19.5512 3.53756 
187 2 21.3296 15.9512 1.80213 
225 3 21.3402 17.6991 0.073572 
227 3 21.3186 19.5259 1.77386 
228 2 23.0208 17.809 1.7709 
586 2 23.0546 15.9581 3.60173 
625 2 21.3182 17.7746 3.50231 
626 2 23.0878 19.5535 3.51628 
190 1 26.6302 15.9856 0.0069921 
191 1 24.8456 16.0155 1.7908 
229 1 24.8757 17.7753 0.0112444 
230 1 26.6295 19.5622 0.00159897 
231 3 24.8553 19.5248 1.79148 
232 2 26.7127 17.7762 1.77437 
590 1 26.6462 15.9977 3.56909 
629 1 24.8614 17.765 3.54919 
630 1 26.633 19.5236 3.57951 
195 3 28.4117 16.0273 1.81188 
235 2 28.4247 19.4938 1.78995 
236 3 30.1468 17.7886 1.81202 
594 2 30.1693 16.0185 3.55682 
633 3 28.4298 17.8033 3.62762 
634 3 30.1344 19.5722 3.57468 
198 1 33.7532 15.9828 0.00733375 
199 3 31.9849 16.0191 1.76286 
239 1 31.9712 19.5288 1.77599 
240 2 33.7929 17.7752 1.81616 
598 3 33.7257 16.0172 3.55695 
637 3 31.9385 17.7588 3.55653 
638 3 33.7561 19.4895 3.57706 
242 1 1.7814 23.0491 0.0138705 
244 2 1.74687 21.2727 1.79692 
245 3 3.50313 21.2493 0.0518432 
247 3 3.56889 23.0258 1.84897 
642 1 1.74578 23.1066 3.56777 
645 2 3.56187 21.322 3.51314 
246 3 5.24674 23.0085 0.0187883 
248 2 5.32627 21.2663 1.74128 
251 3 7.0402 23.0047 1.73904 
646 2 5.32122 23.0756 3.50937 
649 1 7.08462 21.2713 3.56174 
250 3 8.90064 22.9561 0.0629517 
252 2 8.88579 21.269 1.78062 
253 1 10.6955 21.2435 0.032622 
255 3 10.6615 23.0579 1.75297 
650 3 8.85388 23.0486 3.4522 
653 3 10.6402 21.2772 3.55207 
254 2 12.4051 23.0517 0.0504178 
256 1 12.4715 21.2818 1.8057 
257 1 14.2269 21.298 0.0290418 
259 3 14.2426 23.0558 1.76913 
654 1 12.4368 23.0701 3.5386 
657 3 14.2913 21.3642 3.54079 
258 2 16.0112 23.1132 0.0289842 
260 2 15.9804 21.3357 1.82319 
261 2 17.7705 21.3127 0.0286126 
263 2 17.7523 23.0754 1.79397 
264 3 19.5352 21.3287 1.72148 
658 1 15.9864 23.1226 3.55569 
661 3 17.7246 21.3392 3.51348 
662 1 19.5304 23.0695 3.5663 
265 2 21.318 21.2867 0.00947019 
267 2 21.3212 23.0659 1.79225 
268 3 23.0603 21.2753 1.76583 
308 2 23.0806 23.0698 0.0160457 
665 1 21.3049 21.2885 3.56573 
708 1 23.0889 23.0629 3.56017 
271 2 24.8689 23.0635 1.79784 
272 3 26.6682 21.2758 1.82603 
669 1 24.8657 21.2952 3.5602 
670 2 26.6452 23.0814 3.55893 
273 2 28.3942 21.3013 0.0234983 
274 3 30.1736 23.0535 0.0638787 
275 1 28.3968 23.0709 1.78374 
276 2 30.1812 21.3051 1.80434 
673 2 28.3999 21.2863 3.54767 
674 3 30.1484 23.0533 3.52357 
243 1 35.4853 23.0693 1.78867 
278 2 33.6943 23.078 0.0728932 
279 3 31.9199 23.0741 1.78287 
280 3 33.7611 21.2724 1.80412 
641 1 35.4962 21.3174 3.59696 
677 1 31.9624 21.3062 3.5565 
678 3 33.6895 23.1096 3.54846 
284 3 1.72208 24.8695 1.78071 
285 1 3.53379 24.8075 0.032696 
287 1 3.52904 26.647 1.78116 
682 1 1.74573 26.6479 3.55001 
685 1 3.52028 24.869 3.55967 
288 3 5.3317 24.8674 1.77317 
289 3 7.04067 24.8832 0.00757946 
291 3 7.05172 26.6917 1.73634 
686 2 5.3317 26.6314 3.54569 
689 1 7.10408 24.8774 3.53164 
290 3 8.94411 26.748 0.070995 
292 3 8.84742 24.8061 1.70439 
295 2 10.5956 26.6417 1.75365 
690 3 8.8929 26.691 3.44114 
693 1 10.639 24.8485 3.51509 
296 1 12.4607 24.8678 1.77806 
297 1 14.2021 24.8493 0.00816093 
299 3 14.2406 26.6975 1.76893 
694 1 12.4097 26.6553 3.54182 
697 1 14.2042 24.8759 3.53907 
300 2 15.9631 24.8748 1.75979 
301 3 17.7234 24.82 0.0974912 
302 3 19.5272 26.6003 0.0130196 
303 2 17.7646 26.662 1.76122 
304 2 19.5628 24.8344 1.74681 
698 3 16.0324 26.6372 3.52283 
701 3 17.7714 24.8668 3.4247 
702 1 19.5525 26.6093 3.53083 
305 3 21.4143 24.8419 0.0526918 
307 2 21.3402 26.5943 1.74541 
666 3 21.289 24.8604 3.54014 
705 2 23.0771 26.5762 3.53766 
706 3 23.1379 24.7882 1.74304 
309 2 24.8274 24.837 0.030185 
311 1 24.8563 26.6162 1.78123 
312 2 26.6257 24.8549 1.78739 
709 3 24.869 24.843 3.56335 
710 2 26.6256 26.5797 3.54357 
313 1 28.3934 24.8489 0.000808357 
314 1 30.1625 26.5975 0.0180676 
315 3 28.3897 26.6244 1.85159 
316 2 30.1764 24.8416 1.79898 
713 3 28.4022 24.8757 3.58366 
714 2 30.175 26.6035 3.53902 
281 3 35.5019 24.8614 0.0129338 
283 2 35.4902 26.6084 1.71133 
318 3 33.6934 26.6338 0.0127238 
319 3 31.987 26.6458 1.77343 
320 1 33.7165 24.8493 1.78063 
681 3 35.4709 24.8802 3.51517 
717 1 31.9324 24.8581 3.57063 
718 2 33.7419 26.6135 3.51092 
322 1 1.74824 30.2099 0.00469761 
324 1 1.75637 28.422 1.77667 
327 3 3.46702 30.2473 1.80637 
722 2 1.76291 30.1765 3.54938 
725 2 3.50168 28.4305 3.56628 
328 1 5.27663 28.4378 1.78233 
331 2 7.08361 30.1971 1.78361 
726 2 5.28185 30.192 3.56685 
729 1 7.07463 28.4217 3.55184 
330 2 8.88166 30.1785 0.0110635 
332 3 8.88657 28.5032 1.77252 
335 2 10.6652 30.1986 1.76809 
730 2 8.88832 30.1713 3.52887 
733 2 10.611 28.4306 3.51249 
334 3 12.4101 30.1963 0.0229302 
336 1 12.4309 28.4068 1.76155 
339 2 14.2255 30.1948 1.76202 
734 2 12.4495 30.201 3.5486 
737 1 14.2148 28.4252 3.53671 
340 3 16.0146 28.4495 1.72777 
342 2 19.5626 30.1721 -0.000780383 
343 3 17.8031 30.1681 1.78302 
344 2 19.5769 28.3929 1.75484 
738 3 15.978 30.2437 3.55231 
741 2 17.7841 28.4304 3.53046 
742 3 19.5914 30.1416 3.49626 
347 3 21.3128 30.2024 1.66843 
348 1 23.0843 28.3849 1.73782 
745 3 21.3102 28.3209 3.52423 
746 1 23.0496 30.1345 3.5215 
351 2 24.8316 30.1867 1.71698 
352 1 26.624 28.4081 1.76286 
749 1 24.8517 28.4025 3.5454 
750 2 26.6373 30.2504 3.5513 
355 1 28.409 30.16 1.76572 
356 1 30.1893 28.4001 1.78163 
753 2 28.4134 28.3721 3.53285 
754 3 30.2062 30.2156 3.5369 
323 2 35.4977 30.1874 1.76736 
359 3 31.9787 30.1563 1.73988 
360 2 33.7105 28.3922 1.74851 
721 1 35.4782 28.4232 3.5422 
757 1 31.9627 28.4117 3.55193 
758 2 33.6957 30.1967 3.51935 
4 1 1.76245 35.4894 1.78978 
362 3 1.77547 33.7491 0.0336291 
364 2 1.78334 31.9536 1.76917 
367 2 3.5715 33.7377 1.75372 
405 1 3.51393 35.4929 3.57959 
762 1 1.75345 33.6983 3.56061 
765 1 3.51611 31.9488 3.56024 
8 3 5.28888 35.4745 1.78622 
366 3 5.31935 33.7256 0.011457 
368 1 5.29137 31.9308 1.7989 
369 3 7.0873 31.9212 0.0839071 
371 3 7.01876 33.6864 1.8566 
766 2 5.27838 33.7285 3.57898 
769 2 7.07497 31.9788 3.57168 
370 1 8.82717 33.7499 0.0184056 
372 1 8.88766 31.9482 1.79812 
373 1 10.6457 31.9941 0.0144444 
375 3 10.6754 33.7738 1.77078 
770 1 8.90951 33.7132 3.55263 
773 3 10.696 31.8768 3.59286 
374 2 12.4694 33.7665 0.0069077 
376 1 12.4207 31.987 1.78843 
379 1 14.2254 33.7528 1.75931 
774 3 12.4511 33.7318 3.57509 
777 2 14.2202 31.97 3.53925 
20 2 15.989 35.5019 1.73384 
380 3 15.9991 31.9627 1.75421 
383 3 17.803 33.7313 1.72862 
384 2 19.5619 31.9777 1.76813 
421 1 17.7893 35.4896 3.53199 
778 1 16.0059 33.7397 3.53569 
781 1 17.7972 31.9794 3.55168 
782 3 19.5682 33.7694 3.55623 
387 1 21.3249 33.7727 1.73981 
388 2 23.0863 31.952 1.75278 
785 3 21.3305 31.9587 3.51631 
786 1 23.0816 33.7709 3.5198 
391 2 24.835 33.7236 1.73415 
392 1 26.6082 31.9558 1.77015 
789 3 24.7994 31.9362 3.5588 
790 3 26.6032 33.7047 3.4573 
36 2 30.1942 35.4977 1.77295 
394 3 30.1158 33.7847 0.0272469 
395 2 28.4157 33.6964 1.75007 
396 2 30.1823 31.9002 1.7374 
433 1 28.403 35.4769 3.51831 
793 3 28.4343 31.9482 3.51446 
794 1 30.1683 33.6919 3.51426 
37 1 31.9574 35.4958 0.00822721 
363 2 35.4799 33.7287 1.79576 
398 1 33.7245 33.751 0.00493226 
399 1 31.9609 33.704 1.75437 
400 1 33.7383 31.9564 1.77677 
401 1 35.4848 35.4864 3.58505 
437 1 31.9433 35.4895 3.53405 
761 1 35.4788 31.9286 3.55716 
797 2 31.9227 31.8909 3.49242 
798 3 33.6882 33.6827 3.54881 
403 3 0.0234812 1.77051 5.36006 
407 1 3.51689 1.76797 5.34728 
444 2 1.77788 3.53795 5.37247 
802 3 1.76785 1.81439 7.19193 
845 3 3.51841 3.54185 7.13338 
411 1 7.08972 1.77355 5.33675 
448 1 5.313 3.55164 5.34979 
806 2 5.30708 1.78102 7.12084 
849 3 7.11722 3.55205 7.12745 
415 3 10.6047 1.78202 5.29512 
452 2 8.86364 3.54161 5.29254 
810 1 8.86898 1.76569 7.09235 
813 1 10.6624 0.00633145 7.08972 
853 2 10.6351 3.57263 7.06927 
419 3 14.3078 1.80675 5.3234 
456 1 12.4453 3.54213 5.30801 
814 1 12.4366 1.78202 7.07536 
817 1 14.2188 0.00250721 7.09808 
857 2 14.2215 3.54024 7.05197 
420 2 15.9855 0.0315119 5.32063 
423 3 17.7441 1.73277 5.29769 
424 2 19.5712 0.0417199 5.30277 
460 3 15.999 3.57113 5.29574 
464 3 19.5482 3.53408 5.32915 
818 3 16.0103 1.77813 7.13159 
821 2 17.7784 0.0476078 7.09248 
822 3 19.5427 1.72283 7.03677 
861 1 17.7693 3.55946 7.08798 
427 2 21.3517 1.80139 5.30802 
428 3 23.1163 0.107739 5.32627 
468 3 23.129 3.53686 5.28427 
826 2 23.1236 1.77512 7.05296 
865 1 21.3374 3.57085 7.07666 
431 3 24.8963 1.84389 5.30256 
432 1 26.631 0.00971553 5.30011 
472 3 26.6999 3.64936 5.29372 
829 3 24.8895 0.0497431 7.08681 
830 3 26.6818 1.84713 7.11081 
869 1 24.8806 3.57386 7.08376 
435 1 28.4088 1.76278 5.30148 
476 3 30.1351 3.59118 5.32557 
834 2 30.1729 1.74274 7.03045 
873 2 28.4291 3.54858 7.073 
439 3 31.8796 1.78742 5.31355 
440 3 33.6691 0.0109143 5.27622 
480 2 33.686 3.53186 5.31528 
838 1 33.7194 1.76682 7.10412 
841 1 35.4847 3.56923 7.10932 
877 1 31.9235 3.55769 7.09764 
443 2 0.00180141 5.37171 5.38201 
447 1 3.53914 5.32785 5.35772 
484 2 1.79067 7.12329 5.34473 
842 2 1.77088 5.29063 7.1516 
885 1 3.55496 7.08254 7.11939 
451 1 7.09553 5.32031 5.34953 
488 3 5.28586 7.13072 5.30098 
846 3 5.32259 5.29371 7.108 
889 1 7.0861 7.07646 7.12269 
455 2 10.6507 5.32804 5.33513 
492 1 8.88258 7.11201 5.35673 
850 2 8.90551 5.32047 7.11919 
893 1 10.6586 7.12292 7.11299 
459 1 14.1925 5.33247 5.30968 
496 1 12.4409 7.09263 5.33595 
854 3 12.3903 5.30718 7.08296 
897 2 14.168 7.0782 7.16468 
463 3 17.7343 5.35994 5.34471 
500 1 15.9454 7.12719 5.35129 
504 1 19.5309 7.12162 5.32022 
858 1 15.9457 5.34066 7.10847 
862 3 19.5177 5.3645 7.09047 
901 2 17.7655 7.09584 7.11933 
467 1 21.327 5.33997 5.30973 
508 3 23.0878 7.15481 5.27492 
866 1 23.0861 5.36148 7.11119 
905 1 21.3274 7.12558 7.10066 
471 1 24.855 5.34828 5.3095 
512 2 26.6279 7.13367 5.31388 
870 2 26.6513 5.32966 7.07103 
909 1 24.862 7.12314 7.09623 
475 2 28.4069 5.32363 5.3201 
516 3 30.0955 7.11121 5.34702 
874 2 30.1853 5.36906 7.07795 
913 2 28.4178 7.10194 7.09529 
479 1 31.9503 5.36402 5.31821 
520 3 33.8775 7.1074 5.3009 
878 1 33.6978 5.33464 7.10304 
881 2 35.4827 7.07747 7.17762 
917 3 31.898 7.08892 7.1125 
483 2 0.0164361 8.85613 5.38956 
487 3 3.43003 8.83237 5.30112 
524 2 1.80521 10.6339 5.36971 
882 1 1.76983 8.86234 7.14252 
921 2 0.0222901 10.6521 7.12542 
925 3 3.5755 10.6205 7.113 
491 1 7.11375 8.86755 5.33428 
528 3 5.33233 10.6272 5.25847 
886 1 5.3082 8.867 7.08044 
929 1 7.09511 10.6265 7.11904 
495 3 10.688 8.82534 5.20993 
532 1 8.90025 10.6036 5.35235 
890 3 8.89867 8.82976 7.21051 
933 3 10.6436 10.5652 7.16668 
499 2 14.1572 8.85757 5.33433 
536 1 12.4144 10.6377 5.35099 
894 1 12.4033 8.87381 7.11919 
937 1 14.1905 10.6328 7.11238 
503 1 17.7313 8.88419 5.34556 
540 1 15.9501 10.6486 5.37995 
544 2 19.5149 10.6608 5.32347 
898 2 15.9785 8.83847 7.16101 
902 3 19.4898 8.89229 7.05944 
941 1 17.7507 10.6369 7.12928 
507 2 21.3053 8.88848 5.31512 
548 2 23.0962 10.6316 5.35589 
906 2 23.1001 8.87641 7.09822 
945 1 21.2925 10.6356 7.11556 
511 3 24.8368 8.90509 5.33585 
552 1 26.637 10.6389 5.33324 
910 3 26.6597 8.85102 7.05734 
949 2 24.8634 10.6479 7.12057 
515 2 28.4147 8.89574 5.32085 
556 3 30.2161 10.5987 5.34638 
914 1 30.1791 8.86347 7.12857 
953 2 28.4102 10.6367 7.1055 
519 2 31.9783 8.82022 5.36393 
560 1 33.7442 10.6211 5.35999 
918 1 33.723 8.83685 7.15571 
957 2 31.9539 10.6175 7.12924 
523 3 0.0125229 12.3826 5.39123 
527 1 3.56213 12.4033 5.35343 
564 2 1.78237 14.1652 5.36879 
922 3 1.77337 12.4175 7.09982 
965 3 3.57774 14.2054 7.12326 
531 1 7.12477 12.3951 5.32773 
568 1 5.36656 14.1688 5.33002 
926 1 5.33093 12.3776 7.1396 
969 1 7.13338 14.1795 7.11617 
535 1 10.6557 12.4127 5.36643 
572 3 8.87872 14.2264 5.32103 
930 1 8.90878 12.4195 7.11469 
973 3 10.6349 14.2532 7.1072 
539 1 14.1985 12.4385 5.37778 
576 1 12.4185 14.1905 5.36681 
934 3 12.3337 12.4177 7.17572 
977 1 14.1831 14.186 7.13605 
543 1 17.7347 12.4368 5.3626 
580 3 16.0065 14.2614 5.40414 
584 3 19.4561 14.2401 5.34678 
938 2 16.0051 12.4808 7.15171 
942 1 19.5354 12.4334 7.10658 
981 3 17.7358 14.2321 7.16578 
547 3 21.339 12.3246 5.29513 
588 3 23.0896 14.152 5.35393 
946 1 23.0759 12.4225 7.12885 
985 3 21.2856 14.211 7.00904 
551 2 24.8715 12.4322 5.37567 
592 3 26.6778 14.1686 5.36148 
950 3 26.6495 12.3954 7.12326 
989 3 24.9081 14.1822 7.14004 
555 3 28.4559 12.4221 5.35617 
596 3 30.1786 14.2167 5.37052 
954 2 30.1622 12.4214 7.09554 
993 2 28.3697 14.1767 7.12887 
559 1 31.9687 12.3991 5.34176 
600 1 33.7256 14.1928 5.34684 
958 2 33.7396 12.4098 7.11329 
961 1 35.4857 14.1844 7.14583 
997 3 31.9409 14.1461 7.17185 
567 3 3.5911 15.9297 5.38523 
603 2 0.00184817 19.5074 5.37078 
604 1 1.82071 17.7382 5.37096 
607 3 3.61139 19.6153 5.20246 
962 1 1.77949 15.9486 7.13873 
1002 3 1.89674 19.55 7.10431 
1005 3 3.56998 17.7461 7.1344 
571 1 7.12486 15.9753 5.3524 
608 3 5.32469 17.763 5.32729 
611 2 7.06135 19.4978 5.36255 
966 1 5.36866 15.9582 7.11561 
1006 3 5.31297 19.546 7.12913 
1009 3 7.13596 17.7735 7.1783 
575 1 10.6459 15.9845 5.34853 
612 1 8.87119 17.7507 5.34173 
615 2 10.6641 19.5178 5.34491 
970 2 8.89184 15.99 7.12384 
1010 2 8.88303 19.5067 7.12023 
1013 3 10.6009 17.7919 7.09857 
579 3 14.2011 16.0135 5.41489 
616 2 12.4371 17.7318 5.36167 
619 1 14.2013 19.5187 5.33032 
974 2 12.3937 15.9754 7.11537 
1014 1 12.4101 19.5171 7.10992 
1017 2 14.218 17.7496 7.11172 
583 2 17.7299 15.9802 5.36043 
620 2 15.9692 17.7299 5.35062 
623 1 17.7512 19.5452 5.30718 
624 1 19.5326 17.7612 5.31308 
978 2 15.9877 15.9828 7.12071 
982 1 19.5558 15.9965 7.10625 
1018 3 15.9685 19.5354 7.10363 
1021 3 17.7344 17.7389 7.08648 
1022 1 19.526 19.5206 7.0968 
587 3 21.3349 16.0443 5.2869 
627 1 21.3243 19.5185 5.33035 
628 1 23.08 17.7696 5.33936 
986 1 23.0624 15.9781 7.09709 
1025 2 21.2827 17.7802 7.15004 
1026 2 23.016 19.6056 7.14884 
591 1 24.8539 15.9692 5.35267 
631 1 24.8353 19.5341 5.35515 
632 2 26.6376 17.7462 5.34499 
990 2 26.5763 15.8693 7.13182 
1029 1 24.8581 17.7511 7.12332 
1030 1 26.6185 19.544 7.11857 
595 1 28.3833 15.9863 5.36392 
635 2 28.396 19.5342 5.3484 
636 1 30.1701 17.7761 5.38036 
994 1 30.1542 15.9726 7.17157 
1033 1 28.3604 17.775 7.13239 
1034 2 30.1825 19.5517 7.16419 
563 3 35.4929 15.9868 5.38118 
599 3 31.9178 15.9638 5.35248 
639 2 31.9444 19.5262 5.31248 
640 1 33.6994 17.7485 5.38881 
998 2 33.6431 15.9693 7.13337 
1001 3 35.4986 17.7398 7.1023 
1037 3 31.9226 17.8097 7.15462 
1038 3 33.6132 19.5609 7.13092 
644 3 1.81111 21.3 5.31855 
647 2 3.54088 23.0467 5.32267 
1042 1 1.73759 23.0864 7.11439 
1045 2 3.5583 21.2961 7.12411 
648 2 5.2841 21.2686 5.3469 
651 1 7.08993 23.0818 5.31335 
1046 3 5.27518 23.0627 7.08954 
1049 1 7.10486 21.3142 7.08093 
652 1 8.88806 21.3058 5.29262 
655 3 10.6839 23.0642 5.29782 
1050 1 8.90028 23.1049 7.04823 
1053 1 10.6521 21.3131 7.07579 
656 1 12.4425 21.2979 5.29621 
659 2 14.204 23.0825 5.34155 
1054 3 12.4477 23.0892 7.06571 
1057 2 14.2091 21.3121 7.12229 
660 3 15.9616 21.3166 5.30289 
663 3 17.7564 23.0938 5.34278 
664 3 19.5613 21.3196 5.37174 
1058 1 15.9739 23.0859 7.08976 
1061 1 17.7634 21.3124 7.0892 
1062 2 19.5489 23.0742 7.10279 
667 1 21.32 23.0997 5.33508 
668 3 23.0519 21.2957 5.37018 
1065 3 21.2804 21.292 7.11087 
1066 3 23.0363 23.0589 7.10556 
671 1 24.8608 23.0661 5.35481 
672 2 26.6319 21.314 5.34733 
1069 1 24.841 21.3245 7.11307 
1070 3 26.7088 23.0674 7.13568 
675 1 28.4123 23.0515 5.33573 
676 1 30.1778 21.3071 5.35068 
1073 2 28.4047 21.2973 7.14171 
1074 3 30.1914 23.0207 7.13638 
643 1 35.4811 23.1126 5.36083 
679 2 31.9211 23.1043 5.31578 
680 1 33.7243 21.3157 5.34185 
1041 3 35.501 21.2386 7.09755 
1077 2 31.9472 21.2918 7.13 
1078 1 33.7214 23.0882 7.12632 
684 1 1.73742 24.8841 5.34226 
687 2 3.52442 26.6812 5.35922 
1082 3 1.74513 26.6813 7.09754 
1085 1 3.52528 24.8596 7.08531 
688 1 5.2961 24.8436 5.31378 
691 3 7.08476 26.6226 5.35486 
1086 3 5.36123 26.6227 7.09255 
1089 2 7.05492 24.9065 7.04537 
692 1 8.88424 24.8544 5.26981 
695 1 10.6371 26.6518 5.29475 
1090 2 8.79559 26.6478 7.02994 
1093 1 10.658 24.8705 7.07195 
696 2 12.4101 24.835 5.32635 
699 1 14.2095 26.6549 5.30471 
1094 3 12.4538 26.6369 7.04639 
1097 3 14.1393 24.8548 7.06458 
700 1 16.0048 24.8893 5.32524 
703 3 17.7765 26.7023 5.26303 
704 2 19.4657 24.8353 5.34896 
1098 3 16.0117 26.657 7.11173 
1101 3 17.8354 24.8139 7.17498 
1144 2 19.4503 26.5923 7.09943 
707 1 21.3121 26.5942 5.33872 
711 2 23.136 24.8457 5.29905 
1102 1 21.3048 24.8523 7.12549 
1106 2 23.1213 26.5982 7.08614 
712 2 26.6468 24.8391 5.35885 
1108 1 24.8569 24.8276 7.12216 
1109 3 24.8824 26.5831 5.33979 
1110 2 26.6665 26.5847 7.13461 
715 2 28.4022 26.5727 5.29552 
716 3 30.1455 24.8759 5.34323 
1113 2 28.4305 24.83 7.09878 
1114 2 30.1415 26.6149 7.12071 
683 1 35.4923 26.6463 5.31864 
719 1 31.9584 26.6384 5.34766 
720 1 33.7275 24.8718 5.33769 
1081 3 35.4874 24.9228 7.18682 
1117 1 31.947 24.8463 7.12131 
1118 2 33.7962 26.577 7.15692 
723 2 0.0314724 30.1555 5.31667 
724 3 1.77148 28.4612 5.29064 
727 1 3.53456 30.1875 5.32415 
1121 2 0.0669049 28.3671 7.09982 
1122 1 1.76716 30.1557 7.09191 
1125 2 3.53483 28.3921 7.09857 
728 1 5.30802 28.3982 5.33518 
731 1 7.092 30.183 5.32578 
1126 2 5.34594 30.1784 7.07152 
1129 3 7.07208 28.3343 7.11105 
732 1 8.8691 28.4036 5.29493 
735 2 10.6833 30.2033 5.27961 
1130 1 8.8716 30.1647 7.08012 
1133 1 10.6424 28.4033 7.07869 
736 2 12.4399 28.4399 5.31269 
739 3 14.1809 30.1961 5.31537 
1134 1 12.4139 30.1861 7.0922 
1137 2 14.2247 28.4066 7.07357 
740 3 16.0112 28.4412 5.31997 
743 2 17.7851 30.1888 5.30375 
744 2 19.5465 28.4179 5.31226 
1138 1 15.9945 30.2035 7.0981 
1141 1 17.7839 28.4245 7.11376 
1142 3 19.5425 30.2073 7.0999 
747 3 21.3148 30.1389 5.34984 
748 1 21.3096 28.3744 7.10936 
1145 1 23.0861 28.3654 5.33435 
1146 2 23.093 30.1915 7.10256 
751 2 24.8506 30.1736 5.33679 
752 1 26.6237 28.3767 5.28673 
1149 2 24.8713 28.3795 7.08091 
1150 1 26.6816 30.1198 7.07271 
755 1 28.4222 30.1747 5.29287 
756 2 30.1556 28.3778 5.32313 
1153 3 28.4442 28.2637 6.94844 
1154 1 30.1729 30.1485 7.10357 
759 1 31.962 30.1762 5.32403 
760 1 33.7427 28.4065 5.33885 
1157 1 31.9637 28.3997 7.1095 
1158 1 33.7348 30.1668 7.09028 
404 3 1.77933 35.4825 5.36324 
764 2 1.77739 31.9313 5.32998 
767 3 3.51052 33.6863 5.34729 
805 1 3.53967 35.4966 7.12333 
1162 1 1.76627 33.6913 7.10167 
1165 2 3.57397 31.9613 7.05377 
408 3 5.30383 35.4782 5.3372 
768 3 5.30989 31.9634 5.32271 
771 3 7.09182 33.6921 5.2575 
809 1 7.08908 35.4712 7.10744 
1166 1 5.32985 33.7246 7.10304 
1169 3 7.07916 31.9681 7.08863 
412 3 8.84492 35.4805 5.316 
772 1 8.87856 31.9379 5.3268 
775 1 10.6627 33.7347 5.3256 
1170 3 8.89677 33.7097 7.10291 
1173 2 10.6422 31.9738 7.10277 
416 3 12.4818 35.4971 5.31211 
776 2 12.4403 31.9631 5.29705 
779 1 14.2275 33.7242 5.33989 
1174 2 12.4123 33.7071 7.09321 
1177 2 14.2108 31.9367 7.06586 
780 3 15.9955 31.9623 5.34263 
783 2 17.7784 33.7465 5.33092 
784 1 19.5716 31.9572 5.3164 
1178 2 16.0235 33.7276 7.07122 
1181 3 17.7631 32.0016 7.06138 
1182 1 19.5498 33.7376 7.09099 
787 1 21.3505 33.7443 5.31691 
788 2 23.1052 31.9398 5.27814 
825 1 21.3413 35.4959 7.0849 
1185 1 21.3346 31.952 7.08969 
1186 3 23.1422 33.6947 7.11315 
791 1 24.8451 33.7648 5.28703 
792 3 26.5842 31.937 5.30211 
1189 3 24.8258 31.8538 7.03839 
1190 3 26.5652 33.6799 7.11078 
436 3 30.1874 35.4374 5.31511 
795 3 28.3885 33.7049 5.31786 
796 1 30.1938 31.9479 5.32815 
833 3 28.3917 35.4781 7.09039 
1193 3 28.4153 31.9832 7.12943 
1194 1 30.1958 33.7312 7.11173 
763 1 35.4919 33.709 5.32901 
799 2 31.9579 33.7266 5.29387 
800 1 33.7123 31.9456 5.31643 
801 1 35.4783 35.483 7.10041 
837 1 31.9583 35.501 7.10715 
1161 2 35.495 31.9498 7.11144 
1197 2 31.9158 31.9238 7.17094 
1198 1 33.7007 33.7059 7.08575 
803 3 0.00746376 1.7802 8.89724 
807 2 3.53951 1.78902 8.87984 
844 2 1.75894 3.57441 8.92025 
1202 3 1.79926 1.77307 10.5815 
1205 2 3.52425 0.00536573 10.6321 
1241 2 0.00155416 3.50778 10.6572 
1245 2 3.54294 3.54787 10.64 
808 3 5.32856 0.0260746 8.91122 
811 2 7.09525 1.74517 8.87508 
848 1 5.34841 3.55089 8.8639 
1206 2 5.32172 1.76006 10.6432 
1209 2 7.12316 0.000705657 10.6578 
1249 2 7.11892 3.51537 10.6323 
815 1 10.6553 1.78428 8.85247 
852 1 8.88666 3.5588 8.85866 
1210 1 8.88892 1.76882 10.619 
1253 2 10.6613 3.56591 10.6138 
819 1 14.2078 1.79573 8.86087 
856 2 12.4356 3.63252 8.80881 
1214 1 12.4038 1.76968 10.6259 
1257 2 14.2068 3.54564 10.6538 
820 2 16.0219 0.00666154 8.85551 
823 3 17.7692 1.76478 8.83336 
824 2 19.5356 0.0094627 8.87785 
860 2 15.9843 3.55348 8.83142 
864 2 19.564 3.55289 8.80127 
1218 1 15.9987 1.75715 10.6049 
1222 1 19.5648 1.78557 10.611 
1261 1 17.7685 3.55632 10.5947 
827 1 21.3172 1.76906 8.84546 
828 1 23.0875 0.00882278 8.86695 
868 3 23.0575 3.51947 8.86375 
1226 3 23.0733 1.7913 10.6425 
1265 2 21.3471 3.54084 10.5904 
831 1 24.8533 1.79691 8.8722 
832 1 26.6438 0.0340053 8.8938 
872 2 26.6582 3.55549 8.88827 
1229 2 24.8766 0.0388861 10.6624 
1230 2 26.6531 1.8002 10.6872 
1269 1 24.8448 3.56608 10.6438 
835 1 28.4502 1.78206 8.88254 
876 1 30.2142 3.57311 8.87997 
1234 1 30.1936 1.78418 10.6807 
1273 3 28.3774 3.56363 10.6494 
839 1 31.9853 1.77137 8.89843 
880 1 33.7177 3.5624 8.90721 
1237 1 31.9893 0.0105737 10.6831 
1238 3 33.7944 1.76773 10.669 
1277 1 31.9661 3.58651 10.6926 
847 1 3.56458 5.32481 8.89904 
884 1 1.77506 7.07098 8.91179 
1242 3 1.74445 5.28769 10.6739 
1285 1 3.54573 7.08888 10.6789 
851 1 7.11804 5.32251 8.87565 
888 1 5.33387 7.11756 8.89712 
1246 1 5.34125 5.3485 10.6521 
1289 2 7.10676 7.13213 10.6631 
855 3 10.6768 5.27812 8.80825 
892 2 8.90586 7.11993 8.87139 
1250 1 8.8895 5.31424 10.6289 
1293 1 10.6519 7.07258 10.6493 
859 3 14.1668 5.30219 8.8491 