ITEM: TIMESTEP
1000
ITEM: NUMBER OF ATOMS
3999
ITEM: BOX BOUNDS pp pp pp
0.0000000000000000e+00 3.5503000000000000e+01
0.0000000000000000e+00 3.5503000000000000e+01
0.0000000000000000e+00 3.5503000000000000e+01
ITEM: ATOMS id type x y z 
7 3 3.52124 1.73836 1.75677 
44 1 1.77532 3.56253 1.79325 
45 1 3.53055 3.58124 0.0111446 
402 1 1.75561 1.79243 3.57916 
445 3 3.52684 3.5929 3.5547 
6 3 5.27546 1.78141 0.041897 
9 3 7.04056 0.0686786 0.0126922 
11 2 7.09078 1.79147 1.78017 
48 1 5.29746 3.57197 1.80811 
49 1 7.10276 3.56402 0.00920103 
406 1 5.29834 1.78834 3.56084 
409 1 7.08201 0.0111929 3.55299 
449 3 7.1273 3.577 3.54706 
10 3 8.9202 1.79266 0.00521665 
12 1 8.86194 0.0017579 1.77873 
13 3 10.6914 0.0215063 0.0223667 
15 2 10.6315 1.76936 1.77456 
52 1 8.88928 3.58618 1.79147 
410 3 8.89735 1.77156 3.5544 
413 2 10.6756 0.00196888 3.57299 
453 1 10.668 3.57734 3.54497 
14 1 12.4294 1.8087 0.00675491 
16 1 12.4465 0.0181635 1.7874 
19 2 14.2372 1.7849 1.80084 
56 1 12.4422 3.57778 1.76454 
57 2 14.223 3.52787 0.000406031 
414 1 12.4496 1.77963 3.55619 
417 3 14.2414 0.00255297 3.55896 
457 3 14.2581 3.58898 3.47874 
23 2 17.7601 1.8008 1.7781 
24 1 19.5665 0.030533 1.74872 
60 2 15.9939 3.58018 1.80884 
61 3 17.7186 3.50203 0.0217024 
64 3 19.4966 3.5632 1.74075 
418 3 16.0401 1.75699 3.48062 
422 1 19.5604 1.80039 3.52833 
461 2 17.7431 3.57925 3.56751 
27 1 21.315 1.80815 1.72232 
28 1 23.0832 0.0381402 1.73658 
68 1 23.0929 3.59538 1.74662 
425 3 21.34 0.025364 3.59144 
426 1 23.1043 1.81868 3.50496 
465 1 21.32 3.58332 3.51788 
30 3 26.648 1.75284 0.00971626 
31 2 24.9099 1.81737 1.72695 
32 1 26.6243 0.00433538 1.73836 
72 2 26.6553 3.58023 1.73542 
429 1 24.8584 0.0430425 3.50596 
430 1 26.6414 1.82138 3.5257 
469 2 24.8771 3.56629 3.57886 
35 1 28.4058 1.76891 1.75073 
76 1 30.1829 3.56182 1.76608 
434 3 30.1628 1.74669 3.53045 
473 2 28.45 3.56557 3.54661 
1 1 35.4914 0.00968872 0.00794886 
3 2 35.4723 1.7757 1.77816 
38 3 33.7263 1.77295 0.0497622 
39 2 31.9649 1.81436 1.80816 
40 3 33.7272 0.047131 1.8404 
80 1 33.7353 3.56695 1.78671 
438 3 33.739 1.80696 3.60678 
441 1 35.5015 3.57043 3.59095 
477 3 31.9245 3.56481 3.582 
42 2 1.77552 5.35968 0.0134867 
43 1 0.0279157 5.36299 1.79086 
47 3 3.5009 5.4219 1.82814 
84 3 1.78734 7.17102 1.83654 
442 1 1.76823 5.33876 3.58534 
481 2 0.0470405 7.12925 3.57508 
485 2 3.56907 7.09785 3.5855 
46 1 5.31306 5.32397 0.0034997 
51 3 7.08379 5.32612 1.80777 
88 1 5.33251 7.09693 1.77826 
89 3 7.12316 7.16576 0.00444282 
446 2 5.32263 5.32878 3.57358 
489 1 7.11089 7.09705 3.56089 
50 1 8.88433 5.33439 0.0178278 
55 3 10.7067 5.34018 1.80058 
92 1 8.89451 7.07221 1.78032 
450 3 8.91736 5.34845 3.60781 
493 2 10.653 7.11407 3.5589 
59 2 14.2172 5.33909 1.78389 
96 1 12.4488 7.10271 1.76287 
454 2 12.4334 5.35114 3.53397 
497 2 14.2041 7.11342 3.53845 
63 1 17.742 5.37173 1.75814 
100 1 15.9766 7.1515 1.75254 
104 1 19.5013 7.1305 1.78325 
458 3 15.9355 5.39003 3.51825 
462 3 19.5107 5.2943 3.54976 
501 3 17.7461 7.12372 3.57244 
67 1 21.3 5.33032 1.74489 
108 1 23.0822 7.10253 1.77674 
466 2 23.0843 5.35424 3.57374 
505 2 21.2636 7.11124 3.55462 
70 3 26.6984 5.33708 0.0370768 
71 1 24.8559 5.34034 1.76366 
112 1 26.6122 7.11382 1.76839 
470 2 26.6409 5.3175 3.55291 
509 2 24.8664 7.12954 3.57025 
75 2 28.4193 5.32624 1.77387 
113 3 28.4315 7.09241 0.00808617 
116 1 30.1911 7.12076 1.78097 
474 3 30.1447 5.38535 3.54969 
513 1 28.3732 7.12755 3.53945 
78 1 33.7558 5.35265 0.0159978 
79 3 31.9449 5.34463 1.77632 
120 1 33.76 7.1186 1.78709 
478 1 33.7339 5.34385 3.56813 
517 2 31.9473 7.11824 3.58009 
82 1 1.7854 8.89253 0.0096731 
83 2 0.0193939 8.89013 1.76282 
87 2 3.55498 8.83652 1.81348 
124 1 1.78884 10.6534 1.78864 
125 1 3.5669 10.6228 0.0099746 
482 2 1.80407 8.87096 3.58912 
521 1 0.025982 10.6408 3.57963 
525 1 3.56306 10.6417 3.56005 
91 2 7.12911 8.85421 1.79559 
128 1 5.34289 10.6262 1.79058 
486 3 5.31295 8.86575 3.56154 
529 3 7.12943 10.559 3.53597 
90 3 8.89899 8.8698 0.0284397 
95 2 10.6516 8.87128 1.80417 
132 1 8.9048 10.6713 1.7749 
133 3 10.6375 10.6517 0.00390863 
490 3 8.92327 8.86792 3.52035 
533 1 10.669 10.6446 3.55129 
94 1 12.4145 8.89786 0.0139245 
99 2 14.186 8.88941 1.79144 
136 1 12.409 10.6688 1.79558 
137 1 14.1804 10.6771 0.0168585 
494 3 12.4634 8.79411 3.55592 
537 1 14.1899 10.6282 3.57751 
98 1 15.9507 8.90681 0.000348294 
103 3 17.7548 8.93414 1.81078 
140 2 15.9868 10.6652 1.78706 
144 2 19.519 10.6521 1.76007 
498 1 15.9626 8.8828 3.56537 
502 3 19.5413 8.92464 3.58006 
541 2 17.7562 10.668 3.5579 
107 2 21.2854 8.90537 1.79174 
145 3 21.2859 10.6539 0.000108528 
148 2 23.0922 10.6506 1.77952 
506 1 23.0771 8.87111 3.54331 
545 2 21.2946 10.6596 3.55613 
111 3 24.8382 8.8938 1.80242 
152 1 26.6164 10.6414 1.75415 
510 3 26.6325 8.89211 3.5516 
549 2 24.866 10.6577 3.57675 
114 3 30.1266 8.89765 0.0245028 
115 2 28.4059 8.89861 1.76923 
156 2 30.1934 10.6475 1.7845 
514 2 30.2056 8.8828 3.55677 
553 3 28.4411 10.6291 3.54038 
119 3 31.9777 8.84729 1.73775 
157 1 31.9725 10.6469 0.0216887 
160 2 33.7422 10.6357 1.78243 
518 1 33.7625 8.86527 3.56016 
557 3 31.9498 10.5578 3.57158 
123 1 0.0161776 12.408 1.79798 
127 1 3.56703 12.4263 1.79046 
161 1 0.0353083 14.1799 0.0071743 
164 1 1.80909 14.1809 1.78335 
165 1 3.56435 14.1768 0.0250034 
522 3 1.76479 12.4048 3.61876 
561 1 0.00855326 14.1821 3.58147 
565 1 3.5888 14.1762 3.56645 
126 1 5.34815 12.4283 0.0162748 
131 1 7.11077 12.439 1.79147 
168 3 5.35681 14.2506 1.85189 
169 1 7.09628 14.1843 7.73597e-05 
526 2 5.37757 12.3675 3.5795 
569 3 7.14305 14.2416 3.55615 
130 2 8.90521 12.4311 0.0155186 
135 3 10.6669 12.5387 1.76348 
172 3 8.9286 14.208 1.74487 
173 2 10.6601 14.2216 0.00879327 
530 1 8.87939 12.4306 3.5616 
573 2 10.6249 14.2123 3.57217 
134 2 12.4006 12.4324 0.00638955 
139 1 14.1883 12.4362 1.8107 
176 2 12.4052 14.202 1.79625 
534 1 12.4398 12.4425 3.5807 
577 3 14.2391 14.278 3.63689 
142 2 19.5109 12.423 0.00584106 
143 3 17.7516 12.4176 1.7879 
180 1 15.9306 14.1813 1.77471 
184 2 19.544 14.2007 1.78235 
538 1 15.9599 12.4469 3.5904 
542 3 19.4848 12.397 3.54441 
581 3 17.744 14.2259 3.53825 
146 3 23.0654 12.3956 0.014296 
147 3 21.3028 12.4115 1.82419 
185 3 21.3291 14.22 0.0376334 
188 2 23.0825 14.1706 1.79467 
546 3 23.1155 12.3788 3.59943 
585 1 21.2989 14.1911 3.60666 
151 1 24.8727 12.4212 1.77923 
189 3 24.8215 14.2088 0.01202 
192 1 26.6369 14.2069 1.79684 
550 3 26.649 12.411 3.61341 
589 1 24.873 14.2017 3.57834 
155 1 28.3837 12.4233 1.77888 
193 1 28.3868 14.2003 0.00122753 
196 1 30.1716 14.2291 1.77099 
554 3 30.1989 12.4094 3.53409 
593 2 28.4391 14.1915 3.60088 
158 2 33.7221 12.4035 0.0406978 
159 3 31.9661 12.4459 1.81401 
197 2 31.9504 14.2154 0.00299482 
200 2 33.7195 14.1899 1.82292 
558 3 33.7174 12.3722 3.55485 
597 3 31.9407 14.2498 3.54294 
163 1 0.0404824 15.9849 1.78897 
167 3 3.59084 16.0129 1.76708 
202 3 1.80055 19.5006 0.0504576 
203 3 0.0439041 19.4985 1.83971 
204 3 1.85337 17.7724 1.8733 
207 2 3.5254 19.4844 1.79812 
562 1 1.8021 15.9278 3.58237 
601 3 0.0328044 17.7503 3.65897 
602 2 1.78661 19.5192 3.5942 
605 2 3.56176 17.7159 3.60274 
166 2 5.2884 15.9499 0.0096872 
171 1 7.10457 15.9829 1.75326 
206 1 5.28226 19.4778 0.0122199 
208 2 5.27468 17.6777 1.78585 
211 1 7.0915 19.4533 1.7954 
566 2 5.33712 15.9604 3.57127 
606 2 5.29991 19.502 3.56362 
609 1 7.1022 17.7253 3.56203 
175 3 10.7009 15.8869 1.7569 
210 2 8.92395 19.456 0.0289372 
212 3 8.92407 17.674 1.78821 
213 3 10.6769 17.7183 0.0422804 
215 1 10.664 19.4859 1.80963 
570 2 8.8895 15.9416 3.52413 
610 1 8.87319 19.4971 3.57224 
613 1 10.6649 17.7321 3.56025 
179 1 14.1942 15.9733 1.78669 
214 3 12.4159 19.4703 0.00824536 
216 2 12.4071 17.7235 1.76485 
217 1 14.2167 17.7485 0.015056 
219 1 14.2243 19.5086 1.79525 
574 1 12.4418 15.9685 3.58228 
614 1 12.4601 19.4951 3.55682 
617 3 14.2355 17.662 3.58436 
182 3 19.53 15.9325 0.0307075 
183 2 17.7376 15.9266 1.74094 
220 2 15.9951 17.7108 1.78748 
223 1 17.76 19.5321 1.7709 
224 3 19.5429 17.7188 1.78908 
578 3 16.0356 16.0027 3.54867 
582 1 19.5108 15.9831 3.55908 
618 1 15.9726 19.4973 3.55564 
621 2 17.7254 17.7211 3.5389 
622 1 19.522 19.55 3.53761 
187 2 21.3299 15.9495 1.80254 
225 3 21.3412 17.6972 0.0742291 
227 3 21.3197 19.5243 1.77411 
228 2 23.0216 17.8071 1.77133 
586 2 23.0548 15.9563 3.60219 
625 2 21.3189 17.7732 3.50261 
626 2 23.0888 19.552 3.51638 
190 1 26.6305 15.9834 0.00717393 
191 1 24.8459 16.0136 1.79118 
229 1 24.8766 17.7733 0.0116333 
230 1 26.6303 19.5606 0.00195744 
231 3 24.8563 19.523 1.79181 
232 2 26.7133 17.7742 1.77458 
590 1 26.6463 15.9958 3.56946 
629 1 24.862 17.7633 3.54948 
630 1 26.6336 19.5218 3.57966 
195 3 28.4118 16.0251 1.81205 
235 2 28.4251 19.4921 1.79016 
236 3 30.1469 17.7864 1.81185 
594 2 30.1692 16.0163 3.55699 
633 3 28.4301 17.8011 3.62775 
634 3 30.1344 19.5701 3.57468 
198 1 33.7532 15.9808 0.00698392 
199 3 31.9847 16.0169 1.76268 
239 1 31.971 19.5272 1.77592 
240 2 33.7925 17.7731 1.81596 
598 3 33.7251 16.0145 3.55663 
637 3 31.9381 17.7569 3.55632 
638 3 33.7555 19.4879 3.57698 
242 1 1.78081 23.0483 0.014027 
244 2 1.74608 21.2714 1.79678 
245 3 3.50186 21.2475 0.0519891 
247 3 3.56808 23.0248 1.84913 
642 1 1.74488 23.1058 3.56727 
645 2 3.56078 21.3207 3.51292 
246 3 5.24407 23.0072 0.0186883 
248 2 5.32514 21.2647 1.74109 
251 3 7.03736 23.0037 1.73815 
646 2 5.31987 23.0749 3.5089 
649 1 7.08366 21.2702 3.56078 
250 3 8.9003 22.9549 0.0649735 
252 2 8.8851 21.2679 1.78031 
253 1 10.6955 21.2428 0.0330391 
255 3 10.6623 23.0572 1.75291 
650 3 8.85254 23.0484 3.44927 
653 3 10.6398 21.2766 3.55135 
254 2 12.4053 23.0515 0.0510793 
256 1 12.4717 21.281 1.80584 
257 1 14.2273 21.2973 0.0297373 
259 3 14.2428 23.0552 1.76917 
654 1 12.4367 23.0699 3.53809 
657 3 14.2915 21.3636 3.54052 
258 2 16.0118 23.1127 0.0301668 
260 2 15.981 21.3346 1.82355 
261 2 17.7716 21.3118 0.0299142 
263 2 17.7531 23.0748 1.79458 
264 3 19.5365 21.3275 1.72201 
658 1 15.9868 23.122 3.55534 
661 3 17.7255 21.3382 3.51307 
662 1 19.5315 23.0687 3.5661 
265 2 21.3196 21.2856 0.0107858 
267 2 21.3229 23.0653 1.79285 
268 3 23.0617 21.2738 1.7664 
308 2 23.0821 23.0689 0.0171165 
665 1 21.3061 21.2875 3.56571 
708 1 23.0905 23.062 3.56018 
271 2 24.8703 23.0628 1.79825 
272 3 26.6695 21.2745 1.82643 
669 1 24.8668 21.2939 3.56018 
670 2 26.646 23.0807 3.55902 
273 2 28.3947 21.3 0.0237662 
274 3 30.1741 23.053 0.0645013 
275 1 28.3974 23.0702 1.784 
276 2 30.1811 21.3037 1.80422 
673 2 28.4002 21.2849 3.54753 
674 3 30.1488 23.0529 3.52298 
243 1 35.4846 23.0686 1.78844 
278 2 33.6938 23.0772 0.0730618 
279 3 31.92 23.0731 1.7827 
280 3 33.7607 21.271 1.804 
641 1 35.4954 21.3164 3.59645 
677 1 31.9619 21.305 3.55619 
678 3 33.6884 23.1089 3.54778 
284 3 1.7212 24.8693 1.7806 
285 1 3.5324 24.8073 0.0327424 
287 1 3.52763 26.6477 1.78092 
682 1 1.74452 26.6486 3.54935 
685 1 3.51872 24.869 3.55912 
288 3 5.32919 24.8673 1.77299 
289 3 7.03785 24.883 0.00849865 
291 3 7.04896 26.6921 1.73576 
686 2 5.33029 26.6319 3.54488 
689 1 7.10275 24.8775 3.5299 
290 3 8.94392 26.7489 0.0732286 
292 3 8.84649 24.8061 1.70225 
295 2 10.5959 26.6424 1.75334 
690 3 8.89173 26.691 3.43787 
693 1 10.6382 24.8484 3.51349 
296 1 12.461 24.8678 1.77819 
297 1 14.2027 24.8493 0.00893654 
299 3 14.2409 26.6978 1.76909 
694 1 12.4095 26.6555 3.54111 
697 1 14.2045 24.8757 3.53865 
300 2 15.9638 24.8747 1.76026 
301 3 17.7248 24.8199 0.0995297 
302 3 19.5287 26.6011 0.0143075 
303 2 17.7657 26.6623 1.762 
304 2 19.5641 24.8342 1.74777 
698 3 16.0328 26.6373 3.52295 
701 3 17.7723 24.8667 3.42401 
702 1 19.554 26.6096 3.53077 
305 3 21.4159 24.8417 0.0548751 
307 2 21.3418 26.5947 1.74633 
666 3 21.2906 24.8597 3.53969 
705 2 23.0788 26.5765 3.53779 
706 3 23.14 24.7885 1.74393 
309 2 24.8288 24.8367 0.0312942 
311 1 24.8578 26.6169 1.78152 
312 2 26.6267 24.8549 1.78794 
709 3 24.8706 24.8428 3.56344 
710 2 26.6265 26.5804 3.54372 
313 1 28.3941 24.8488 0.00158473 
314 1 30.1629 26.5981 0.0186317 
315 3 28.3905 26.6251 1.85186 
316 2 30.1765 24.8416 1.7992 
713 3 28.4026 24.8756 3.58369 
714 2 30.1752 26.6041 3.53875 
281 3 35.5016 24.8613 0.0134373 
283 2 35.4893 26.609 1.71106 
318 3 33.6932 26.6345 0.0130918 
319 3 31.9868 26.6464 1.77356 
320 1 33.7161 24.8493 1.78053 
681 3 35.4702 24.88 3.51425 
717 1 31.9321 24.8581 3.57033 
718 2 33.7408 26.6143 3.51018 
322 1 1.7477 30.2115 0.00441336 
324 1 1.7554 28.4232 1.77637 
327 3 3.46612 30.2489 1.80603 
722 2 1.76206 30.1781 3.54857 
725 2 3.50036 28.4316 3.56555 
328 1 5.27533 28.4389 1.78211 
331 2 7.08282 30.1983 1.7833 
726 2 5.28094 30.1932 3.56604 
729 1 7.07349 28.4222 3.55087 
330 2 8.88129 30.1792 0.0111841 
332 3 8.88624 28.5051 1.77254 
335 2 10.6653 30.1996 1.76783 
730 2 8.88755 30.172 3.52806 
733 2 10.6105 28.4313 3.51152 
334 3 12.4104 30.197 0.023172 
336 1 12.4311 28.4074 1.76147 
339 2 14.2257 30.1955 1.76222 
734 2 12.4496 30.2015 3.54827 
737 1 14.215 28.4255 3.53645 
340 3 16.0151 28.45 1.7282 
342 2 19.5638 30.1731 0.000441277 
343 3 17.8035 30.169 1.7834 
344 2 19.5782 28.3936 1.75549 
738 3 15.9784 30.2443 3.55234 
741 2 17.7849 28.431 3.53018 
742 3 19.5923 30.1427 3.49616 
347 3 21.3143 30.2039 1.66898 
348 1 23.0858 28.3858 1.73849 
745 3 21.3115 28.3223 3.52404 
746 1 23.051 30.136 3.52165 
351 2 24.8326 30.1881 1.71728 
352 1 26.6251 28.4093 1.7632 
749 1 24.853 28.4034 3.54548 
750 2 26.6379 30.252 3.55138 
355 1 28.4094 30.1617 1.76594 
356 1 30.1896 28.4016 1.78174 
753 2 28.414 28.3733 3.53299 
754 3 30.2062 30.2175 3.53683 
323 2 35.4972 30.189 1.76701 
359 3 31.9786 30.1584 1.73985 
360 2 33.7101 28.3934 1.74831 
721 1 35.4774 28.4244 3.54164 
757 1 31.9624 28.4131 3.55182 
758 2 33.695 30.1984 3.51872 
4 1 1.76273 35.4911 1.78936 
362 3 1.7758 33.7509 0.0330385 
364 2 1.78304 31.9554 1.76871 
367 2 3.57141 33.7394 1.75324 
405 1 3.51412 35.4945 3.57936 
762 1 1.75323 33.7002 3.56024 
765 1 3.51559 31.9505 3.55972 
8 3 5.28923 35.476 1.78606 
366 3 5.31943 33.7273 0.0111185 
368 1 5.29096 31.9324 1.79845 
369 3 7.08697 31.9224 0.083848 
371 3 7.01881 33.6878 1.85636 
766 2 5.27827 33.73 3.5785 
769 2 7.07455 31.9801 3.57106 
370 1 8.8272 33.7508 0.0181499 
372 1 8.88749 31.9492 1.79791 
373 1 10.6456 31.9949 0.014439 
375 3 10.6754 33.7747 1.77056 
770 1 8.90958 33.7144 3.55228 
773 3 10.6959 31.8779 3.59252 
374 2 12.4694 33.7673 0.00686049 
376 1 12.4208 31.9879 1.78835 
379 1 14.2253 33.7539 1.75931 
774 3 12.4511 33.733 3.57474 
777 2 14.2203 31.9708 3.53908 
20 2 15.9889 35.503 1.73373 
380 3 15.9992 31.9638 1.75461 
383 3 17.8032 33.7325 1.72877 
384 2 19.5627 31.979 1.76852 
421 1 17.7893 35.4907 3.53198 
778 1 16.006 33.7409 3.53556 
781 1 17.7977 31.9806 3.5514 
782 3 19.5687 33.771 3.55612 
387 1 21.3254 33.7743 1.73999 
388 2 23.0873 31.9538 1.75319 
785 3 21.3316 31.9603 3.51621 
786 1 23.082 33.7728 3.52008 
391 2 24.8355 33.7256 1.73444 
392 1 26.6087 31.9578 1.77049 
789 3 24.8001 31.9382 3.55923 
790 3 26.6033 33.7068 3.45757 
36 2 30.1944 35.4998 1.77282 
394 3 30.116 33.7869 0.0273265 
395 2 28.4159 33.6984 1.75015 
396 2 30.1825 31.9022 1.73753 
433 1 28.403 35.4789 3.5185 
793 3 28.4344 31.9502 3.51467 
794 1 30.1683 33.694 3.5143 
37 1 31.9576 35.4979 0.00776369 
363 2 35.4799 33.7307 1.79532 
398 1 33.7246 33.7531 0.00450652 
399 1 31.961 33.7062 1.7542 
400 1 33.7383 31.9584 1.77646 
401 1 35.4848 35.4883 3.58475 
437 1 31.9433 35.4916 3.534 
761 1 35.4783 31.9305 3.55668 
797 2 31.9226 31.8931 3.49236 
798 3 33.6881 33.6851 3.54844 
403 3 0.0237862 1.7722 5.36007 
407 1 3.5175 1.76944 5.34735 
444 2 1.77842 3.53901 5.37272 
802 3 1.76828 1.81586 7.19196 
845 3 3.51925 3.54261 7.13452 
411 1 7.0904 1.77483 5.33707 
448 1 5.31383 3.55261 5.3504 
806 2 5.30777 1.78214 7.12135 
849 3 7.11835 3.55266 7.12875 
415 3 10.6051 1.78313 5.29547 
452 2 8.86451 3.54226 5.29307 
810 1 8.86977 1.76643 7.09309 
813 1 10.6629 0.00713556 7.08995 
853 2 10.6359 3.5729 7.07056 
419 3 14.3084 1.80751 5.32395 
456 1 12.4457 3.54255 5.30876 
814 1 12.4371 1.78234 7.0763 
817 1 14.2189 0.00321841 7.09843 
857 2 14.2217 3.54011 7.05331 
420 2 15.9856 0.0325468 5.32082 
423 3 17.7433 1.73391 5.29741 
424 2 19.571 0.0431199 5.30313 
460 3 15.9991 3.57177 5.29668 
464 3 19.5471 3.53451 5.33037 
818 3 16.0106 1.77789 7.13325 
821 2 17.7784 0.0483246 7.09308 
822 3 19.5409 1.72275 7.03825 
861 1 17.7685 3.55939 7.08974 
427 2 21.351 1.80257 5.30887 
428 3 23.1161 0.109966 5.32682 
468 3 23.1274 3.53694 5.28563 
826 2 23.1225 1.77574 7.05453 
865 1 21.3356 3.57084 7.0785 
431 3 24.8959 1.84543 5.30322 
432 1 26.6308 0.0115104 5.30073 
472 3 26.6991 3.65037 5.29473 
829 3 24.8889 0.0513289 7.08788 
830 3 26.6812 1.84835 7.11208 
869 1 24.8794 3.57417 7.08527 
435 1 28.4085 1.76439 5.30219 
476 3 30.1353 3.59225 5.32622 
834 2 30.1727 1.74436 7.03122 
873 2 28.4284 3.5494 7.07418 
439 3 31.8798 1.78905 5.314 
440 3 33.669 0.0131284 5.27645 
480 2 33.6865 3.53299 5.31579 
838 1 33.7197 1.76849 7.1048 
841 1 35.4853 3.57031 7.1102 
877 1 31.9237 3.55886 7.09854 
443 2 0.0025093 5.37235 5.38255 
447 1 3.54021 5.32841 5.35835 
484 2 1.7918 7.1235 5.34547 
842 2 1.77211 5.29102 7.15256 
885 1 3.55624 7.08264 7.12074 
451 1 7.09639 5.32073 5.35038 
488 3 5.28696 7.13119 5.30202 
846 3 5.32377 5.29381 7.10936 
889 1 7.08719 7.07661 7.12427 
455 2 10.6514 5.32816 5.33627 
492 1 8.88341 7.11183 5.35798 
850 2 8.9062 5.32037 7.12072 
893 1 10.6592 7.12291 7.11457 
459 1 14.1927 5.33262 5.31065 
496 1 12.4411 7.09255 5.33703 
854 3 12.3907 5.30709 7.08448 
897 2 14.168 7.07825 7.16621 
463 3 17.734 5.35992 5.34556 
500 1 15.9453 7.12714 5.35242 
504 1 19.5302 7.12162 5.32135 
858 1 15.9455 5.34057 7.11019 
862 3 19.5164 5.36476 7.09264 
901 2 17.765 7.0958 7.12083 
467 1 21.3258 5.34001 5.31098 
508 3 23.0866 7.1548 5.27637 
866 1 23.0847 5.36125 7.11284 
905 1 21.3262 7.1255 7.10238 
471 1 24.8536 5.34843 5.31069 
512 2 26.627 7.13371 5.31489 
870 2 26.6503 5.3298 7.07225 
909 1 24.8609 7.12275 7.09792 
475 2 28.4064 5.32419 5.3211 
516 3 30.0954 7.11142 5.34752 
874 2 30.1849 5.36955 7.07883 
913 2 28.4169 7.10194 7.09671 
479 1 31.9506 5.36477 5.31884 
520 3 33.8782 7.10748 5.30125 
878 1 33.6983 5.3354 7.10385 
881 2 35.4839 7.07758 7.17902 
917 3 31.8979 7.08882 7.11379 
483 2 0.0170514 8.85553 5.3903 
487 3 3.43123 8.83221 5.30221 
524 2 1.80579 10.6331 5.37011 
882 1 1.77096 8.86217 7.14365 
921 2 0.0228598 10.6511 7.12635 
925 3 3.57637 10.6205 7.11431 
491 1 7.11475 8.86736 5.33533 
528 3 5.33318 10.6262 5.25923 
886 1 5.30933 8.8671 7.08184 
929 1 7.09622 10.6264 7.1204 
495 3 10.6887 8.82518 5.21123 
532 1 8.90095 10.6033 5.35319 
890 3 8.89969 8.82996 7.21197 
933 3 10.6443 10.5654 7.16794 
499 2 14.1573 8.85747 5.33548 
536 1 12.4147 10.6374 5.35177 
894 1 12.4037 8.874 7.1207 
937 1 14.1905 10.6333 7.11378 
503 1 17.731 8.88411 5.3467 
540 1 15.9497 10.6482 5.38086 
544 2 19.5145 10.6604 5.32472 
898 2 15.9782 8.83847 7.16267 
902 3 19.4887 8.89196 7.0614 
941 1 17.7499 10.637 7.13082 
507 2 21.3046 8.88811 5.31636 
548 2 23.0955 10.6309 5.35708 
906 2 23.099 8.876 7.09997 
945 1 21.2915 10.6351 7.11719 
511 3 24.8357 8.90448 5.33754 
552 1 26.6363 10.6377 5.3344 
910 3 26.6588 8.85044 7.0593 
949 2 24.8627 10.6471 7.12208 
515 2 28.4142 8.89513 5.32173 
556 3 30.2158 10.5971 5.34705 
914 1 30.1787 8.86275 7.1297 
953 2 28.4095 10.6355 7.10683 
519 2 31.9785 8.81951 5.36471 
560 1 33.7446 10.62 5.36056 
918 1 33.7233 8.83618 7.15683 
957 2 31.9538 10.6164 7.13035 
523 3 0.0130178 12.3811 5.39143 
527 1 3.56287 12.402 5.35366 
564 2 1.78238 14.1632 5.36851 
922 3 1.77397 12.4162 7.10082 
965 3 3.5779 14.2036 7.12316 
531 1 7.12537 12.3943 5.32807 
568 1 5.367 14.1675 5.33003 
926 1 5.33196 12.3769 7.14056 
969 1 7.13417 14.1789 7.11659 
535 1 10.656 12.4122 5.36654 
572 3 8.87891 14.2254 5.32063 
930 1 8.90955 12.4194 7.11547 
973 3 10.6355 14.2528 7.10688 
539 1 14.1987 12.4381 5.37809 
576 1 12.4189 14.1899 5.36653 
934 3 12.3339 12.418 7.17652 
977 1 14.1833 14.1858 7.13654 
543 1 17.7342 12.4361 5.36354 
580 3 16.0067 14.2606 5.40363 
584 3 19.4556 14.2388 5.34729 
938 2 16.0048 12.481 7.15303 
942 1 19.5346 12.4332 7.10807 
981 3 17.735 14.2316 7.16669 
547 3 21.3383 12.3237 5.29643 
588 3 23.0895 14.1505 5.35454 
946 1 23.0751 12.4216 7.13031 
985 3 21.2852 14.2101 7.00983 
551 2 24.8709 12.4309 5.37675 
592 3 26.6776 14.1666 5.36208 
950 3 26.6488 12.3939 7.12472 
989 3 24.9078 14.1808 7.14097 
555 3 28.4555 12.4202 5.35695 
596 3 30.1782 14.2145 5.37091 
954 2 30.1618 12.4198 7.09632 
993 2 28.3691 14.1749 7.12952 
559 1 31.9685 12.3972 5.34217 
600 1 33.7254 14.1905 5.34686 
958 2 33.7395 12.4082 7.11401 
961 1 35.4855 14.1825 7.14594 
997 3 31.9406 14.1439 7.17227 
567 3 3.59097 15.928 5.38512 
603 2 0.000662775 19.5058 5.36989 
604 1 1.81977 17.7362 5.37025 
607 3 3.61033 19.6133 5.20212 
962 1 1.77897 15.9466 7.13818 
1002 3 1.89453 19.5479 7.10303 
1005 3 3.569 17.7446 7.13343 
571 1 7.12499 15.974 5.35205 
608 3 5.32432 17.7612 5.32674 
611 2 7.0609 19.4966 5.36148 
966 1 5.36888 15.9568 7.11538 
1006 3 5.31278 19.544 7.12766 
1009 3 7.13633 17.772 7.17745 
575 1 10.6461 15.9835 5.34786 
612 1 8.87109 17.7495 5.34082 
615 2 10.6637 19.5172 5.34367 
970 2 8.89233 15.989 7.12344 
1010 2 8.88245 19.5058 7.11855 
1013 3 10.6008 17.7908 7.09724 
579 3 14.2014 16.0125 5.41438 
616 2 12.4372 17.7309 5.36078 
619 1 14.2015 19.518 5.32967 
974 2 12.3939 15.9745 7.11495 
1014 1 12.4097 19.5166 7.10818 
1017 2 14.2178 17.7486 7.11078 
583 2 17.73 15.9791 5.36064 
620 2 15.9695 17.729 5.35056 
623 1 17.7517 19.5443 5.30692 
624 1 19.5331 17.76 5.31299 
978 2 15.9876 15.982 7.12103 
982 1 19.5557 15.9954 7.1066 
1018 3 15.9689 19.535 7.10334 
1021 3 17.7349 17.7378 7.08565 
1022 1 19.5266 19.5198 7.09607 
587 3 21.3351 16.0427 5.2872 
627 1 21.3251 19.5173 5.33022 
628 1 23.0804 17.768 5.3395 
986 1 23.0623 15.9767 7.09766 
1025 2 21.283 17.7789 7.14997 
1026 2 23.0167 19.6043 7.1488 
591 1 24.8539 15.9675 5.35315 
631 1 24.836 19.5326 5.3552 
632 2 26.6378 17.7444 5.34522 
990 2 26.576 15.8678 7.13244 
1029 1 24.8582 17.7496 7.12355 
1030 1 26.6187 19.5425 7.11857 
595 1 28.3832 15.9843 5.36427 
635 2 28.3963 19.5326 5.34844 
636 1 30.1701 17.7741 5.38048 
994 1 30.1539 15.9706 7.17187 
1033 1 28.3603 17.7732 7.13259 
1034 2 30.1823 19.5503 7.16399 
563 3 35.4924 15.9844 5.38072 
599 3 31.9174 15.9613 5.35238 
639 2 31.944 19.5247 5.31223 
640 1 33.6987 17.7463 5.38832 
998 2 33.6425 15.9671 7.1332 
1001 3 35.4975 17.7372 7.10152 
1037 3 31.9223 17.8077 7.1544 
1038 3 33.6122 19.5592 7.12999 
644 3 1.80984 21.2987 5.31776 
647 2 3.53979 23.046 5.32188 
1042 1 1.73622 23.0858 7.11286 
1045 2 3.55671 21.2944 7.12248 
648 2 5.28312 21.2674 5.34599 
651 1 7.0889 23.0814 5.31132 
1046 3 5.27365 23.0619 7.08773 
1049 1 7.10393 21.3133 7.079 
652 1 8.88721 21.3054 5.29086 
655 3 10.6826 23.0641 5.29576 
1050 1 8.899 23.1047 7.0461 
1053 1 10.6511 21.3127 7.07371 
656 1 12.4422 21.2976 5.29517 
659 2 14.2039 23.0824 5.34072 
1054 3 12.4464 23.0893 7.06387 
1057 2 14.2093 21.3117 7.12073 
660 3 15.9621 21.3159 5.30189 
663 3 17.7571 23.093 5.34196 
664 3 19.562 21.3186 5.37106 
1058 1 15.9743 23.0851 7.0887 
1061 1 17.7638 21.3116 7.08872 
1062 2 19.5505 23.0731 7.10103 
667 1 21.3214 23.099 5.33438 
668 3 23.0533 21.2947 5.36967 
1065 3 21.2817 21.2909 7.10977 
1066 3 23.0379 23.0582 7.10462 
671 1 24.8623 23.0654 5.3547 
672 2 26.6326 21.3127 5.34711 
1069 1 24.8419 21.3234 7.11275 
1070 3 26.7097 23.0666 7.1355 
675 1 28.4128 23.0507 5.33541 
676 1 30.1776 21.3061 5.35025 
1073 2 28.4047 21.2961 7.14137 
1074 3 30.1908 23.0199 7.13631 
643 1 35.4798 23.1121 5.35977 
679 2 31.9204 23.1037 5.31518 
680 1 33.7235 21.3148 5.34123 
1041 3 35.4996 21.2378 7.09644 
1077 2 31.9464 21.2908 7.12931 
1078 1 33.7202 23.0878 7.12524 
684 1 1.73574 24.8841 5.34082 
687 2 3.52314 26.6819 5.35803 
1082 3 1.74297 26.6816 7.09545 
1085 1 3.52343 24.8596 7.08316 
688 1 5.29491 24.8435 5.31224 
691 3 7.08343 26.6228 5.35354 
1086 3 5.35931 26.6232 7.09033 
1089 2 7.05353 24.9062 7.0435 
692 1 8.88284 24.8544 5.26738 
695 1 10.6356 26.6519 5.29273 
1090 2 8.79387 26.6478 7.02808 
1093 1 10.6562 24.8706 7.06976 
696 2 12.4092 24.8352 5.32498 
699 1 14.2096 26.6547 5.3038 
1094 3 12.4519 26.637 7.04413 
1097 3 14.1388 24.8548 7.06269 
700 1 16.0055 24.8889 5.3243 
703 3 17.7778 26.7021 5.26176 
704 2 19.4671 24.835 5.34802 
1098 3 16.0136 26.6573 7.10916 
1101 3 17.8369 24.8128 7.1736 
1144 2 19.452 26.5925 7.09758 
707 1 21.3136 26.5944 5.3377 
711 2 23.1373 24.8454 5.2984 
1102 1 21.3064 24.8521 7.12429 
1106 2 23.1229 26.5985 7.08506 
712 2 26.6477 24.8391 5.35856 
1108 1 24.8581 24.8274 7.1216 
1109 3 24.8835 26.5837 5.33972 
1110 2 26.667 26.5853 7.13427 
715 2 28.4027 26.5733 5.29545 
716 3 30.1452 24.8757 5.34281 
1113 2 28.4306 24.8301 7.09826 
1114 2 30.1414 26.6157 7.12038 
683 1 35.4909 26.647 5.31743 
719 1 31.9579 26.639 5.34708 
720 1 33.7267 24.8719 5.33665 
1081 3 35.4859 24.9227 7.18518 
1117 1 31.9463 24.8463 7.12047 
1118 2 33.7947 26.5775 7.15561 
723 2 0.0302235 30.157 5.31569 
724 3 1.7699 28.4623 5.28988 
727 1 3.53335 30.1889 5.32303 
1121 2 0.0653188 28.3682 7.09876 
1122 1 1.7655 30.1576 7.09045 
1125 2 3.53284 28.3934 7.09673 
728 1 5.3067 28.3992 5.33389 
731 1 7.09118 30.1839 5.32455 
1126 2 5.34448 30.1801 7.06969 
1129 3 7.07059 28.335 7.10909 
732 1 8.86789 28.4037 5.29321 
735 2 10.6826 30.2039 5.27844 
1130 1 8.87064 30.1653 7.07855 
1133 1 10.6409 28.4035 7.07683 
736 2 12.4391 28.4399 5.3115 
739 3 14.1809 30.1966 5.31467 
1134 1 12.4133 30.1863 7.09027 
1137 2 14.2246 28.4066 7.0717 
740 3 16.0118 28.4412 5.3194 
743 2 17.7861 30.1898 5.30276 
744 2 19.5479 28.4185 5.31126 
1138 1 15.9952 30.2042 7.09613 
1141 1 17.7855 28.425 7.112 
1142 3 19.5441 30.2082 7.09777 
747 3 21.3163 30.1403 5.3493 
748 1 21.3114 28.3751 7.10816 
1145 1 23.0874 28.3663 5.3338 
1146 2 23.0941 30.1927 7.10229 
751 2 24.8514 30.1749 5.33676 
752 1 26.6245 28.3778 5.28669 
1149 2 24.8721 28.3803 7.08058 
1150 1 26.6818 30.1212 7.07279 
755 1 28.4224 30.1765 5.29291 
756 2 30.1554 28.3791 5.323 
1153 3 28.4446 28.265 6.94811 
1154 1 30.1728 30.1502 7.10347 
759 1 31.9615 30.1779 5.32361 
760 1 33.7418 28.4076 5.33816 
1157 1 31.9631 28.4009 7.10881 
1158 1 33.7338 30.1685 7.08954 
404 3 1.77933 35.4844 5.36302 
764 2 1.77649 31.933 5.32919 
767 3 3.51018 33.6881 5.34684 
805 1 3.53979 35.4982 7.12318 
1162 1 1.76572 33.6933 7.10107 
1165 2 3.57289 31.9633 7.05245 
408 3 5.30411 35.4798 5.33688 
768 3 5.30932 31.9649 5.32178 
771 3 7.09183 33.6936 5.25701 
809 1 7.08941 35.4724 7.10725 
1166 1 5.32955 33.7263 7.10221 
1169 3 7.07863 31.9695 7.08706 
412 3 8.84549 35.4819 5.31575 
772 1 8.87816 31.9389 5.32583 
775 1 10.6628 33.7358 5.32512 
1170 3 8.89682 33.711 7.10172 
1173 2 10.6419 31.9746 7.10148 
416 3 12.4819 35.4982 5.312 
776 2 12.44 31.964 5.29612 
779 1 14.2274 33.7254 5.33936 
1174 2 12.4124 33.7079 7.09283 
1177 2 14.2107 31.9376 7.06415 
780 3 15.9958 31.9636 5.34169 
783 2 17.7787 33.7476 5.33067 
784 1 19.5726 31.9587 5.31576 
1178 2 16.0235 33.7289 7.07076 
1181 3 17.7638 32.0031 7.0595 
1182 1 19.5503 33.7388 7.09072 
787 1 21.351 33.7461 5.317 
788 2 23.106 31.9415 5.27819 
825 1 21.3408 35.4969 7.08575 
1185 1 21.3357 31.9535 7.08928 
1186 3 23.1424 33.6966 7.11373 
791 1 24.8452 33.7668 5.28749 
792 3 26.5844 31.939 5.30259 
1189 3 24.8262 31.8555 7.03859 
1190 3 26.5646 33.6818 7.11159 
436 3 30.1874 35.4395 5.31547 
795 3 28.3884 33.707 5.3181 
796 1 30.1936 31.9498 5.32816 
833 3 28.3913 35.4797 7.09117 
1193 3 28.415 31.9852 7.1296 
1194 1 30.1956 33.7332 7.11198 
763 1 35.4914 33.711 5.32863 
799 2 31.9576 33.7288 5.29391 
800 1 33.7117 31.9476 5.31594 
801 1 35.4782 35.4849 7.10039 
837 1 31.9582 35.5029 7.10762 
1161 2 35.4941 31.9517 7.1106 
1197 2 31.9154 31.9257 7.17066 
1198 1 33.7004 33.7078 7.08563 
803 3 0.00825516 1.78135 8.89833 
807 2 3.54032 1.78968 8.88057 
844 2 1.75984 3.57499 8.92146 
1202 3 1.80064 1.77386 10.5832 
1205 2 3.5246 0.0061894 10.6327 
1241 2 0.00261239 3.50858 10.6586 
1245 2 3.54434 3.54764 10.6415 
808 3 5.32913 0.0270252 8.91157 
811 2 7.09627 1.74514 8.87628 
848 1 5.34964 3.55093 8.8653 
1206 2 5.32298 1.75964 10.6445 
1249 2 7.12035 3.51455 10.6338 
815 1 10.6563 1.78378 8.85419 
852 1 8.88799 3.55834 8.86064 
1210 1 8.89011 1.76738 10.6211 
1253 2 10.6625 3.56442 10.6164 
819 1 14.2079 1.79499 8.86318 
856 2 12.4361 3.63187 8.81095 
1214 1 12.4045 1.76742 10.629 
1257 2 14.2066 3.5442 10.6568 
820 2 16.0218 0.00654162 8.85679 
823 3 17.7679 1.76421 8.83641 
824 2 19.5349 0.00940993 8.87926 
860 2 15.9837 3.55281 8.83379 
864 2 19.5625 3.55229 8.80356 
1218 1 15.9979 1.755 10.6084 
1222 1 19.5628 1.78398 10.6139 
1261 1 17.7671 3.55495 10.5978 
827 1 21.3155 1.76897 8.8475 
828 1 23.0863 0.00951296 8.86868 
868 3 23.0558 3.5193 8.86571 
1226 3 23.0709 1.79081 10.6448 
1265 2 21.345 3.53995 10.5929 
831 1 24.852 1.79748 8.87397 
832 1 26.6431 0.0353301 8.89508 
872 2 26.6571 3.55589 8.88998 
1229 2 24.8753 0.0394428 10.6642 
1230 2 26.6524 1.80076 10.6888 
1269 1 24.843 3.56582 10.6459 
835 1 28.4498 1.78324 8.88369 
876 1 30.2141 3.57416 8.88103 
1234 1 30.1939 1.78533 10.6815 
1273 3 28.3771 3.56417 10.6508 
839 1 31.9854 1.77284 8.89926 
880 1 33.7184 3.56358 8.90832 
1237 1 31.9894 0.011976 10.6837 
1238 3 33.7948 1.76903 10.6699 
1277 1 31.9665 3.58768 10.6937 
847 1 3.56594 5.325 8.90063 
884 1 1.77656 7.07105 8.91336 
1242 3 1.74614 5.28774 10.6757 
1285 1 3.54764 7.08899 10.6808 
851 1 7.11922 5.32244 8.87738 
888 1 5.33522 7.11769 8.89891 
1246 1 5.34277 5.34786 10.6539 
1289 2 7.10778 7.13217 10.6651 
855 3 10.6779 5.27799 8.81012 
892 2 8.90672 7.12009 8.87325 
1250 1 8.89079 5.31355 10.6307 
1293 1 10.6524 7.07272 10.6511 
859 3 14.1665 5.30143 8.85117 
896 2 12.4013 7.0649 8.8692 
1254 1 12.4213 5.29935 10.6478 
1297 1 14.2133 7.09024 10.6506 