LAMMPS (7 Aug 2019)
Running on 13 partitions of processors
Setting up regular NEB ...
Step MaxReplicaForce MaxAtomForce GradV0 GradV1 GradVc EBF EBR RDT RD1 PE1 RD2 PE2 ... RDN PEN
3    4.7050941    2.0272582 0.0024222786  0.025021969    4.7057781    1.6159995    1.5217901    2.4849022            0   -17363.342  0.083333333   -17363.214   0.16666667   -17362.903         0.25   -17362.496   0.33333333   -17362.102   0.41666667    -17361.83          0.5   -17361.726   0.58333333   -17361.797   0.66666667   -17362.031         0.75   -17362.378   0.83333333   -17362.775   0.91666667   -17363.114            1   -17363.247 
503 0.0078064903 0.0018794107 0.00012214741 0.00012838465  0.073772142   0.82378612   0.72960612     3.021744            0   -17363.342  0.083560076    -17363.31   0.16702337   -17363.164   0.25039719   -17362.943   0.33370068   -17362.718   0.41695392   -17362.569   0.50017547   -17362.518    0.5833823   -17362.529   0.66659688   -17362.622   0.74984445   -17362.824   0.83315069   -17363.078   0.91653445   -17363.219            1   -17363.247 
1003 0.00017524103 4.4105005e-05 2.1818901e-06 2.2520502e-06  0.075435883   0.82342738   0.72924738     3.075758            0   -17363.342  0.083338357   -17363.317    0.1666743   -17363.179   0.25000809   -17362.956   0.33334021   -17362.726   0.41667118   -17362.571   0.50000151   -17362.518   0.58333168   -17362.529   0.66666226   -17362.626   0.74999385   -17362.837   0.83332707   -17363.092   0.91666238   -17363.224            1   -17363.247 
1503 5.2414919e-06 1.2329469e-06 4.8553643e-08 4.9095116e-08  0.075455672   0.82342541   0.72924541    3.0770606            0   -17363.342  0.083333451   -17363.317   0.16666684   -17363.179   0.25000017   -17362.957   0.33333346   -17362.727   0.41666673   -17362.571   0.49999998   -17362.518   0.58333323   -17362.529   0.66666649   -17362.626   0.74999979   -17362.838   0.83333313   -17363.092   0.91666653   -17363.224            1   -17363.247 
1732 9.9610558e-07 2.1805494e-07 8.0384061e-09 8.0213427e-09  0.075455644   0.82342541   0.72924541     3.077091            0   -17363.342  0.083333353   -17363.317    0.1666667   -17363.179   0.25000003   -17362.957   0.33333335   -17362.727   0.41666667   -17362.571   0.49999999   -17362.518   0.58333331   -17362.529   0.66666663   -17362.626   0.74999996   -17362.838   0.83333329   -17363.092   0.91666664   -17363.224            1   -17363.247 
Setting up climbing ...
Climbing replica = 7
Step MaxReplicaForce MaxAtomForce GradV0 GradV1 GradVc EBF EBR RDT RD1 PE1 RD2 PE2 ... RDN PEN
1732  0.075455644  0.055039277 8.0384061e-09 8.0213427e-09  0.075455644   0.82342541   0.72924541     3.077091            0   -17363.342  0.083333353   -17363.317    0.1666667   -17363.179   0.25000003   -17362.957   0.33333335   -17362.727   0.41666667   -17362.571   0.49999999   -17362.518   0.58333331   -17362.529   0.66666663   -17362.626   0.74999996   -17362.838   0.83333329   -17363.092   0.91666664   -17363.224            1   -17363.247 
2232 0.00010992806 2.807689e-05 1.3452374e-09 1.3217872e-09 0.00010252753   0.82684795   0.73266795    3.0746987            0   -17363.342  0.087861661   -17363.311   0.17572445   -17363.154   0.26358823   -17362.913   0.35145272    -17362.68   0.43931766   -17362.547   0.52718281   -17362.515   0.60598773   -17362.547   0.68479226   -17362.664   0.76359603   -17362.887   0.84239871   -17363.117   0.92120005   -17363.228            1   -17363.247 
2732 2.4845984e-06 5.8245561e-07   3.5066e-11 3.3259456e-11 2.3306521e-06   0.82684792   0.73266792    3.0740448            0   -17363.342  0.087865665   -17363.311   0.17573135   -17363.153   0.26359707   -17362.913   0.35146279    -17362.68   0.43932853   -17362.547   0.52719427   -17362.515   0.60599527   -17362.547   0.68479626   -17362.664   0.76359723   -17362.887   0.84239819   -17363.116   0.92119911   -17363.228            1   -17363.247 
2853 9.9372981e-07 2.2906627e-07 1.4087707e-11 1.3246488e-11 9.337658e-07   0.82684792   0.73266792    3.0740352            0   -17363.342  0.087865724   -17363.311   0.17573146   -17363.153    0.2635972   -17362.913   0.35146295    -17362.68    0.4393287   -17362.547   0.52719445   -17362.515    0.6059954   -17362.547   0.68479633   -17362.664   0.76359727   -17362.887   0.84239819   -17363.116    0.9211991   -17363.228            1   -17363.247 
